+ 0.4 0 1 tcp 40 ------- 0 0.0 1.0 0 0
- 0.4 0 1 tcp 40 ------- 0 0.0 1.0 0 0
r 0.409002 0 1 tcp 40 ------- 0 0.0 1.0 0 0
+ 0.409002 1 0 ack 40 ------- 0 1.0 0.0 0 1
- 0.409002 1 0 ack 40 ------- 0 1.0 0.0 0 1
r 0.418004 1 0 ack 40 ------- 0 1.0 0.0 0 1
+ 0.418004 0 1 tcp 1540 ------- 0 0.0 1.0 1 2
- 0.418004 0 1 tcp 1540 ------- 0 0.0 1.0 1 2
+ 0.418004 0 1 tcp 1540 ------- 0 0.0 1.0 2 3
- 0.418086 0 1 tcp 1540 ------- 0 0.0 1.0 2 3
r 0.427086 0 1 tcp 1540 ------- 0 0.0 1.0 1 2
+ 0.427086 1 0 ack 40 ------- 0 1.0 0.0 1 4
- 0.427086 1 0 ack 40 ------- 0 1.0 0.0 1 4
r 0.427169 0 1 tcp 1540 ------- 0 0.0 1.0 2 3
+ 0.427169 1 0 ack 40 ------- 0 1.0 0.0 2 5
- 0.427169 1 0 ack 40 ------- 0 1.0 0.0 2 5
r 0.436089 1 0 ack 40 ------- 0 1.0 0.0 1 4
+ 0.436089 0 1 tcp 1540 ------- 0 0.0 1.0 3 6
- 0.436089 0 1 tcp 1540 ------- 0 0.0 1.0 3 6
+ 0.436089 0 1 tcp 1540 ------- 0 0.0 1.0 4 7
r 0.436171 1 0 ack 40 ------- 0 1.0 0.0 2 5
+ 0.436171 0 1 tcp 1540 ------- 0 0.0 1.0 5 8
+ 0.436171 0 1 tcp 1540 ------- 0 0.0 1.0 6 9
- 0.436171 0 1 tcp 1540 ------- 0 0.0 1.0 4 7
- 0.436253 0 1 tcp 1540 ------- 0 0.0 1.0 5 8
- 0.436335 0 1 tcp 1540 ------- 0 0.0 1.0 6 9
r 0.445171 0 1 tcp 1540 ------- 0 0.0 1.0 3 6
+ 0.445171 1 0 ack 40 ------- 0 1.0 0.0 3 10
- 0.445171 1 0 ack 40 ------- 0 1.0 0.0 3 10
r 0.445253 0 1 tcp 1540 ------- 0 0.0 1.0 4 7
+ 0.445253 1 0 ack 40 ------- 0 1.0 0.0 4 11
- 0.445253 1 0 ack 40 ------- 0 1.0 0.0 4 11
r 0.445335 0 1 tcp 1540 ------- 0 0.0 1.0 5 8
+ 0.445335 1 0 ack 40 ------- 0 1.0 0.0 5 12
- 0.445335 1 0 ack 40 ------- 0 1.0 0.0 5 12
r 0.445417 0 1 tcp 1540 ------- 0 0.0 1.0 6 9
+ 0.445417 1 0 ack 40 ------- 0 1.0 0.0 6 13
- 0.445417 1 0 ack 40 ------- 0 1.0 0.0 6 13
r 0.454173 1 0 ack 40 ------- 0 1.0 0.0 3 10
+ 0.454173 0 1 tcp 1540 ------- 0 0.0 1.0 7 14
- 0.454173 0 1 tcp 1540 ------- 0 0.0 1.0 7 14
+ 0.454173 0 1 tcp 1540 ------- 0 0.0 1.0 8 15
r 0.454255 1 0 ack 40 ------- 0 1.0 0.0 4 11
+ 0.454255 0 1 tcp 1540 ------- 0 0.0 1.0 9 16
+ 0.454255 0 1 tcp 1540 ------- 0 0.0 1.0 10 17
- 0.454255 0 1 tcp 1540 ------- 0 0.0 1.0 8 15
r 0.454337 1 0 ack 40 ------- 0 1.0 0.0 5 12
+ 0.454337 0 1 tcp 1540 ------- 0 0.0 1.0 11 18
+ 0.454337 0 1 tcp 1540 ------- 0 0.0 1.0 12 19
- 0.454337 0 1 tcp 1540 ------- 0 0.0 1.0 9 16
r 0.454419 1 0 ack 40 ------- 0 1.0 0.0 6 13
+ 0.454419 0 1 tcp 1540 ------- 0 0.0 1.0 13 20
+ 0.454419 0 1 tcp 1540 ------- 0 0.0 1.0 14 21
- 0.454419 0 1 tcp 1540 ------- 0 0.0 1.0 10 17
- 0.454501 0 1 tcp 1540 ------- 0 0.0 1.0 11 18
- 0.454583 0 1 tcp 1540 ------- 0 0.0 1.0 12 19
- 0.454666 0 1 tcp 1540 ------- 0 0.0 1.0 13 20
- 0.454748 0 1 tcp 1540 ------- 0 0.0 1.0 14 21
r 0.463255 0 1 tcp 1540 ------- 0 0.0 1.0 7 14
+ 0.463255 1 0 ack 40 ------- 0 1.0 0.0 7 22
- 0.463255 1 0 ack 40 ------- 0 1.0 0.0 7 22
r 0.463337 0 1 tcp 1540 ------- 0 0.0 1.0 8 15
+ 0.463337 1 0 ack 40 ------- 0 1.0 0.0 8 23
- 0.463337 1 0 ack 40 ------- 0 1.0 0.0 8 23
r 0.463419 0 1 tcp 1540 ------- 0 0.0 1.0 9 16
+ 0.463419 1 0 ack 40 ------- 0 1.0 0.0 9 24
- 0.463419 1 0 ack 40 ------- 0 1.0 0.0 9 24
r 0.463501 0 1 tcp 1540 ------- 0 0.0 1.0 10 17
+ 0.463501 1 0 ack 40 ------- 0 1.0 0.0 10 25
- 0.463501 1 0 ack 40 ------- 0 1.0 0.0 10 25
r 0.463583 0 1 tcp 1540 ------- 0 0.0 1.0 11 18
+ 0.463583 1 0 ack 40 ------- 0 1.0 0.0 11 26
- 0.463583 1 0 ack 40 ------- 0 1.0 0.0 11 26
r 0.463666 0 1 tcp 1540 ------- 0 0.0 1.0 12 19
+ 0.463666 1 0 ack 40 ------- 0 1.0 0.0 12 27
- 0.463666 1 0 ack 40 ------- 0 1.0 0.0 12 27
r 0.463748 0 1 tcp 1540 ------- 0 0.0 1.0 13 20
+ 0.463748 1 0 ack 40 ------- 0 1.0 0.0 13 28
- 0.463748 1 0 ack 40 ------- 0 1.0 0.0 13 28
r 0.46383 0 1 tcp 1540 ------- 0 0.0 1.0 14 21
+ 0.46383 1 0 ack 40 ------- 0 1.0 0.0 14 29
- 0.46383 1 0 ack 40 ------- 0 1.0 0.0 14 29
r 0.472257 1 0 ack 40 ------- 0 1.0 0.0 7 22
+ 0.472257 0 1 tcp 1540 ------- 0 0.0 1.0 15 30
- 0.472257 0 1 tcp 1540 ------- 0 0.0 1.0 15 30
+ 0.472257 0 1 tcp 1540 ------- 0 0.0 1.0 16 31
r 0.472339 1 0 ack 40 ------- 0 1.0 0.0 8 23
+ 0.472339 0 1 tcp 1540 ------- 0 0.0 1.0 17 32
+ 0.472339 0 1 tcp 1540 ------- 0 0.0 1.0 18 33
- 0.472339 0 1 tcp 1540 ------- 0 0.0 1.0 16 31
r 0.472421 1 0 ack 40 ------- 0 1.0 0.0 9 24
+ 0.472421 0 1 tcp 1540 ------- 0 0.0 1.0 19 34
+ 0.472421 0 1 tcp 1540 ------- 0 0.0 1.0 20 35
- 0.472421 0 1 tcp 1540 ------- 0 0.0 1.0 17 32
r 0.472503 1 0 ack 40 ------- 0 1.0 0.0 10 25
+ 0.472503 0 1 tcp 1540 ------- 0 0.0 1.0 21 36
+ 0.472503 0 1 tcp 1540 ------- 0 0.0 1.0 22 37
- 0.472503 0 1 tcp 1540 ------- 0 0.0 1.0 18 33
r 0.472586 1 0 ack 40 ------- 0 1.0 0.0 11 26
+ 0.472586 0 1 tcp 1540 ------- 0 0.0 1.0 23 38
+ 0.472586 0 1 tcp 1540 ------- 0 0.0 1.0 24 39
- 0.472586 0 1 tcp 1540 ------- 0 0.0 1.0 19 34
r 0.472668 1 0 ack 40 ------- 0 1.0 0.0 12 27
+ 0.472668 0 1 tcp 1540 ------- 0 0.0 1.0 25 40
+ 0.472668 0 1 tcp 1540 ------- 0 0.0 1.0 26 41
- 0.472668 0 1 tcp 1540 ------- 0 0.0 1.0 20 35
r 0.47275 1 0 ack 40 ------- 0 1.0 0.0 13 28
+ 0.47275 0 1 tcp 1540 ------- 0 0.0 1.0 27 42
+ 0.47275 0 1 tcp 1540 ------- 0 0.0 1.0 28 43
- 0.47275 0 1 tcp 1540 ------- 0 0.0 1.0 21 36
r 0.472832 1 0 ack 40 ------- 0 1.0 0.0 14 29
+ 0.472832 0 1 tcp 1540 ------- 0 0.0 1.0 29 44
+ 0.472832 0 1 tcp 1540 ------- 0 0.0 1.0 30 45
- 0.472832 0 1 tcp 1540 ------- 0 0.0 1.0 22 37
- 0.472914 0 1 tcp 1540 ------- 0 0.0 1.0 23 38
- 0.472996 0 1 tcp 1540 ------- 0 0.0 1.0 24 39
- 0.473078 0 1 tcp 1540 ------- 0 0.0 1.0 25 40
- 0.473161 0 1 tcp 1540 ------- 0 0.0 1.0 26 41
- 0.473243 0 1 tcp 1540 ------- 0 0.0 1.0 27 42
- 0.473325 0 1 tcp 1540 ------- 0 0.0 1.0 28 43
- 0.473407 0 1 tcp 1540 ------- 0 0.0 1.0 29 44
- 0.473489 0 1 tcp 1540 ------- 0 0.0 1.0 30 45
r 0.481339 0 1 tcp 1540 ------- 0 0.0 1.0 15 30
+ 0.481339 1 0 ack 40 ------- 0 1.0 0.0 15 46
- 0.481339 1 0 ack 40 ------- 0 1.0 0.0 15 46
r 0.481421 0 1 tcp 1540 ------- 0 0.0 1.0 16 31
+ 0.481421 1 0 ack 40 ------- 0 1.0 0.0 16 47
- 0.481421 1 0 ack 40 ------- 0 1.0 0.0 16 47
r 0.481503 0 1 tcp 1540 ------- 0 0.0 1.0 17 32
+ 0.481503 1 0 ack 40 ------- 0 1.0 0.0 17 48
- 0.481503 1 0 ack 40 ------- 0 1.0 0.0 17 48
r 0.481586 0 1 tcp 1540 ------- 0 0.0 1.0 18 33
+ 0.481586 1 0 ack 40 ------- 0 1.0 0.0 18 49
- 0.481586 1 0 ack 40 ------- 0 1.0 0.0 18 49
r 0.481668 0 1 tcp 1540 ------- 0 0.0 1.0 19 34
+ 0.481668 1 0 ack 40 ------- 0 1.0 0.0 19 50
- 0.481668 1 0 ack 40 ------- 0 1.0 0.0 19 50
r 0.48175 0 1 tcp 1540 ------- 0 0.0 1.0 20 35
+ 0.48175 1 0 ack 40 ------- 0 1.0 0.0 20 51
- 0.48175 1 0 ack 40 ------- 0 1.0 0.0 20 51
r 0.481832 0 1 tcp 1540 ------- 0 0.0 1.0 21 36
+ 0.481832 1 0 ack 40 ------- 0 1.0 0.0 21 52
- 0.481832 1 0 ack 40 ------- 0 1.0 0.0 21 52
r 0.481914 0 1 tcp 1540 ------- 0 0.0 1.0 22 37
+ 0.481914 1 0 ack 40 ------- 0 1.0 0.0 22 53
- 0.481914 1 0 ack 40 ------- 0 1.0 0.0 22 53
r 0.481996 0 1 tcp 1540 ------- 0 0.0 1.0 23 38
+ 0.481996 1 0 ack 40 ------- 0 1.0 0.0 23 54
- 0.481996 1 0 ack 40 ------- 0 1.0 0.0 23 54
r 0.482078 0 1 tcp 1540 ------- 0 0.0 1.0 24 39
+ 0.482078 1 0 ack 40 ------- 0 1.0 0.0 24 55
- 0.482078 1 0 ack 40 ------- 0 1.0 0.0 24 55
r 0.482161 0 1 tcp 1540 ------- 0 0.0 1.0 25 40
+ 0.482161 1 0 ack 40 ------- 0 1.0 0.0 25 56
- 0.482161 1 0 ack 40 ------- 0 1.0 0.0 25 56
r 0.482243 0 1 tcp 1540 ------- 0 0.0 1.0 26 41
+ 0.482243 1 0 ack 40 ------- 0 1.0 0.0 26 57
- 0.482243 1 0 ack 40 ------- 0 1.0 0.0 26 57
r 0.482325 0 1 tcp 1540 ------- 0 0.0 1.0 27 42
+ 0.482325 1 0 ack 40 ------- 0 1.0 0.0 27 58
- 0.482325 1 0 ack 40 ------- 0 1.0 0.0 27 58
r 0.482407 0 1 tcp 1540 ------- 0 0.0 1.0 28 43
+ 0.482407 1 0 ack 40 ------- 0 1.0 0.0 28 59
- 0.482407 1 0 ack 40 ------- 0 1.0 0.0 28 59
r 0.482489 0 1 tcp 1540 ------- 0 0.0 1.0 29 44
+ 0.482489 1 0 ack 40 ------- 0 1.0 0.0 29 60
- 0.482489 1 0 ack 40 ------- 0 1.0 0.0 29 60
r 0.482571 0 1 tcp 1540 ------- 0 0.0 1.0 30 45
+ 0.482571 1 0 ack 40 ------- 0 1.0 0.0 30 61
- 0.482571 1 0 ack 40 ------- 0 1.0 0.0 30 61
r 0.490341 1 0 ack 40 ------- 0 1.0 0.0 15 46
+ 0.490341 0 1 tcp 1540 ------- 0 0.0 1.0 31 62
- 0.490341 0 1 tcp 1540 ------- 0 0.0 1.0 31 62
+ 0.490341 0 1 tcp 1540 ------- 0 0.0 1.0 32 63
r 0.490423 1 0 ack 40 ------- 0 1.0 0.0 16 47
+ 0.490423 0 1 tcp 1540 ------- 0 0.0 1.0 33 64
+ 0.490423 0 1 tcp 1540 ------- 0 0.0 1.0 34 65
- 0.490423 0 1 tcp 1540 ------- 0 0.0 1.0 32 63
r 0.490506 1 0 ack 40 ------- 0 1.0 0.0 17 48
+ 0.490506 0 1 tcp 1540 ------- 0 0.0 1.0 35 66
+ 0.490506 0 1 tcp 1540 ------- 0 0.0 1.0 36 67
- 0.490506 0 1 tcp 1540 ------- 0 0.0 1.0 33 64
r 0.490588 1 0 ack 40 ------- 0 1.0 0.0 18 49
+ 0.490588 0 1 tcp 1540 ------- 0 0.0 1.0 37 68
+ 0.490588 0 1 tcp 1540 ------- 0 0.0 1.0 38 69
- 0.490588 0 1 tcp 1540 ------- 0 0.0 1.0 34 65
r 0.49067 1 0 ack 40 ------- 0 1.0 0.0 19 50
+ 0.49067 0 1 tcp 1540 ------- 0 0.0 1.0 39 70
- 0.49067 0 1 tcp 1540 ------- 0 0.0 1.0 35 66
r 0.490752 1 0 ack 40 ------- 0 1.0 0.0 20 51
+ 0.490752 0 1 tcp 1540 ------- 0 0.0 1.0 40 71
- 0.490752 0 1 tcp 1540 ------- 0 0.0 1.0 36 67
r 0.490834 1 0 ack 40 ------- 0 1.0 0.0 21 52
+ 0.490834 0 1 tcp 1540 ------- 0 0.0 1.0 41 72
- 0.490834 0 1 tcp 1540 ------- 0 0.0 1.0 37 68
r 0.490916 1 0 ack 40 ------- 0 1.0 0.0 22 53
+ 0.490916 0 1 tcp 1540 ------- 0 0.0 1.0 42 73
- 0.490916 0 1 tcp 1540 ------- 0 0.0 1.0 38 69
r 0.490998 1 0 ack 40 ------- 0 1.0 0.0 23 54
+ 0.490998 0 1 tcp 1540 ------- 0 0.0 1.0 43 74
- 0.490998 0 1 tcp 1540 ------- 0 0.0 1.0 39 70
r 0.491081 1 0 ack 40 ------- 0 1.0 0.0 24 55
+ 0.491081 0 1 tcp 1540 ------- 0 0.0 1.0 44 75
- 0.491081 0 1 tcp 1540 ------- 0 0.0 1.0 40 71
r 0.491163 1 0 ack 40 ------- 0 1.0 0.0 25 56
+ 0.491163 0 1 tcp 1540 ------- 0 0.0 1.0 45 76
- 0.491163 0 1 tcp 1540 ------- 0 0.0 1.0 41 72
r 0.491245 1 0 ack 40 ------- 0 1.0 0.0 26 57
+ 0.491245 0 1 tcp 1540 ------- 0 0.0 1.0 46 77
- 0.491245 0 1 tcp 1540 ------- 0 0.0 1.0 42 73
r 0.491327 1 0 ack 40 ------- 0 1.0 0.0 27 58
+ 0.491327 0 1 tcp 1540 ------- 0 0.0 1.0 47 78
- 0.491327 0 1 tcp 1540 ------- 0 0.0 1.0 43 74
r 0.491409 1 0 ack 40 ------- 0 1.0 0.0 28 59
+ 0.491409 0 1 tcp 1540 ------- 0 0.0 1.0 48 79
- 0.491409 0 1 tcp 1540 ------- 0 0.0 1.0 44 75
r 0.491491 1 0 ack 40 ------- 0 1.0 0.0 29 60
+ 0.491491 0 1 tcp 1540 ------- 0 0.0 1.0 49 80
- 0.491491 0 1 tcp 1540 ------- 0 0.0 1.0 45 76
r 0.491573 1 0 ack 40 ------- 0 1.0 0.0 30 61
+ 0.491573 0 1 tcp 1540 ------- 0 0.0 1.0 50 81
- 0.491573 0 1 tcp 1540 ------- 0 0.0 1.0 46 77
- 0.491655 0 1 tcp 1540 ------- 0 0.0 1.0 47 78
- 0.491738 0 1 tcp 1540 ------- 0 0.0 1.0 48 79
- 0.49182 0 1 tcp 1540 ------- 0 0.0 1.0 49 80
- 0.491902 0 1 tcp 1540 ------- 0 0.0 1.0 50 81
r 0.499423 0 1 tcp 1540 ------- 0 0.0 1.0 31 62
+ 0.499423 1 0 ack 40 ------- 0 1.0 0.0 31 82
- 0.499423 1 0 ack 40 ------- 0 1.0 0.0 31 82
r 0.499506 0 1 tcp 1540 ------- 0 0.0 1.0 32 63
+ 0.499506 1 0 ack 40 ------- 0 1.0 0.0 32 83
- 0.499506 1 0 ack 40 ------- 0 1.0 0.0 32 83
r 0.499588 0 1 tcp 1540 ------- 0 0.0 1.0 33 64
+ 0.499588 1 0 ack 40 ------- 0 1.0 0.0 33 84
- 0.499588 1 0 ack 40 ------- 0 1.0 0.0 33 84
r 0.49967 0 1 tcp 1540 ------- 0 0.0 1.0 34 65
+ 0.49967 1 0 ack 40 ------- 0 1.0 0.0 34 85
- 0.49967 1 0 ack 40 ------- 0 1.0 0.0 34 85
r 0.499752 0 1 tcp 1540 ------- 0 0.0 1.0 35 66
+ 0.499752 1 0 ack 40 ------- 0 1.0 0.0 35 86
- 0.499752 1 0 ack 40 ------- 0 1.0 0.0 35 86
r 0.499834 0 1 tcp 1540 ------- 0 0.0 1.0 36 67
+ 0.499834 1 0 ack 40 ------- 0 1.0 0.0 36 87
- 0.499834 1 0 ack 40 ------- 0 1.0 0.0 36 87
r 0.499916 0 1 tcp 1540 ------- 0 0.0 1.0 37 68
+ 0.499916 1 0 ack 40 ------- 0 1.0 0.0 37 88
- 0.499916 1 0 ack 40 ------- 0 1.0 0.0 37 88
r 0.499998 0 1 tcp 1540 ------- 0 0.0 1.0 38 69
+ 0.499998 1 0 ack 40 ------- 0 1.0 0.0 38 89
- 0.499998 1 0 ack 40 ------- 0 1.0 0.0 38 89
r 0.500081 0 1 tcp 1540 ------- 0 0.0 1.0 39 70
+ 0.500081 1 0 ack 40 ------- 0 1.0 0.0 39 90
- 0.500081 1 0 ack 40 ------- 0 1.0 0.0 39 90
r 0.500163 0 1 tcp 1540 ------- 0 0.0 1.0 40 71
+ 0.500163 1 0 ack 40 ------- 0 1.0 0.0 40 91
- 0.500163 1 0 ack 40 ------- 0 1.0 0.0 40 91
r 0.500245 0 1 tcp 1540 ------- 0 0.0 1.0 41 72
+ 0.500245 1 0 ack 40 ------- 0 1.0 0.0 41 92
- 0.500245 1 0 ack 40 ------- 0 1.0 0.0 41 92
r 0.500327 0 1 tcp 1540 ------- 0 0.0 1.0 42 73
+ 0.500327 1 0 ack 40 ------- 0 1.0 0.0 42 93
- 0.500327 1 0 ack 40 ------- 0 1.0 0.0 42 93
r 0.500409 0 1 tcp 1540 ------- 0 0.0 1.0 43 74
+ 0.500409 1 0 ack 40 ------- 0 1.0 0.0 43 94
- 0.500409 1 0 ack 40 ------- 0 1.0 0.0 43 94
r 0.500491 0 1 tcp 1540 ------- 0 0.0 1.0 44 75
+ 0.500491 1 0 ack 40 ------- 0 1.0 0.0 44 95
- 0.500491 1 0 ack 40 ------- 0 1.0 0.0 44 95
r 0.500573 0 1 tcp 1540 ------- 0 0.0 1.0 45 76
+ 0.500573 1 0 ack 40 ------- 0 1.0 0.0 45 96
- 0.500573 1 0 ack 40 ------- 0 1.0 0.0 45 96
r 0.500655 0 1 tcp 1540 ------- 0 0.0 1.0 46 77
+ 0.500655 1 0 ack 40 ------- 0 1.0 0.0 46 97
- 0.500655 1 0 ack 40 ------- 0 1.0 0.0 46 97
r 0.500738 0 1 tcp 1540 ------- 0 0.0 1.0 47 78
+ 0.500738 1 0 ack 40 ------- 0 1.0 0.0 47 98
- 0.500738 1 0 ack 40 ------- 0 1.0 0.0 47 98
r 0.50082 0 1 tcp 1540 ------- 0 0.0 1.0 48 79
+ 0.50082 1 0 ack 40 ------- 0 1.0 0.0 48 99
- 0.50082 1 0 ack 40 ------- 0 1.0 0.0 48 99
r 0.500902 0 1 tcp 1540 ------- 0 0.0 1.0 49 80
+ 0.500902 1 0 ack 40 ------- 0 1.0 0.0 49 100
- 0.500902 1 0 ack 40 ------- 0 1.0 0.0 49 100
r 0.500984 0 1 tcp 1540 ------- 0 0.0 1.0 50 81
+ 0.500984 1 0 ack 40 ------- 0 1.0 0.0 50 101
- 0.500984 1 0 ack 40 ------- 0 1.0 0.0 50 101
r 0.508426 1 0 ack 40 ------- 0 1.0 0.0 31 82
+ 0.508426 0 1 tcp 1540 ------- 0 0.0 1.0 51 102
- 0.508426 0 1 tcp 1540 ------- 0 0.0 1.0 51 102
r 0.508508 1 0 ack 40 ------- 0 1.0 0.0 32 83
+ 0.508508 0 1 tcp 1540 ------- 0 0.0 1.0 52 103
- 0.508508 0 1 tcp 1540 ------- 0 0.0 1.0 52 103
r 0.50859 1 0 ack 40 ------- 0 1.0 0.0 33 84
+ 0.50859 0 1 tcp 1540 ------- 0 0.0 1.0 53 104
- 0.50859 0 1 tcp 1540 ------- 0 0.0 1.0 53 104
r 0.508672 1 0 ack 40 ------- 0 1.0 0.0 34 85
+ 0.508672 0 1 tcp 1540 ------- 0 0.0 1.0 54 105
- 0.508672 0 1 tcp 1540 ------- 0 0.0 1.0 54 105
r 0.508754 1 0 ack 40 ------- 0 1.0 0.0 35 86
+ 0.508754 0 1 tcp 1540 ------- 0 0.0 1.0 55 106
- 0.508754 0 1 tcp 1540 ------- 0 0.0 1.0 55 106
r 0.508836 1 0 ack 40 ------- 0 1.0 0.0 36 87
+ 0.508836 0 1 tcp 1540 ------- 0 0.0 1.0 56 107
- 0.508836 0 1 tcp 1540 ------- 0 0.0 1.0 56 107
r 0.508918 1 0 ack 40 ------- 0 1.0 0.0 37 88
+ 0.508918 0 1 tcp 1540 ------- 0 0.0 1.0 57 108
- 0.508918 0 1 tcp 1540 ------- 0 0.0 1.0 57 108
r 0.509001 1 0 ack 40 ------- 0 1.0 0.0 38 89
+ 0.509001 0 1 tcp 1540 ------- 0 0.0 1.0 58 109
- 0.509001 0 1 tcp 1540 ------- 0 0.0 1.0 58 109
r 0.509083 1 0 ack 40 ------- 0 1.0 0.0 39 90
+ 0.509083 0 1 tcp 1540 ------- 0 0.0 1.0 59 110
- 0.509083 0 1 tcp 1540 ------- 0 0.0 1.0 59 110
r 0.509165 1 0 ack 40 ------- 0 1.0 0.0 40 91
+ 0.509165 0 1 tcp 1540 ------- 0 0.0 1.0 60 111
- 0.509165 0 1 tcp 1540 ------- 0 0.0 1.0 60 111
r 0.509247 1 0 ack 40 ------- 0 1.0 0.0 41 92
+ 0.509247 0 1 tcp 1540 ------- 0 0.0 1.0 61 112
- 0.509247 0 1 tcp 1540 ------- 0 0.0 1.0 61 112
r 0.509329 1 0 ack 40 ------- 0 1.0 0.0 42 93
+ 0.509329 0 1 tcp 1540 ------- 0 0.0 1.0 62 113
- 0.509329 0 1 tcp 1540 ------- 0 0.0 1.0 62 113
r 0.509411 1 0 ack 40 ------- 0 1.0 0.0 43 94
+ 0.509411 0 1 tcp 1540 ------- 0 0.0 1.0 63 114
- 0.509411 0 1 tcp 1540 ------- 0 0.0 1.0 63 114
r 0.509493 1 0 ack 40 ------- 0 1.0 0.0 44 95
+ 0.509493 0 1 tcp 1540 ------- 0 0.0 1.0 64 115
- 0.509493 0 1 tcp 1540 ------- 0 0.0 1.0 64 115
r 0.509575 1 0 ack 40 ------- 0 1.0 0.0 45 96
+ 0.509575 0 1 tcp 1540 ------- 0 0.0 1.0 65 116
- 0.509575 0 1 tcp 1540 ------- 0 0.0 1.0 65 116
r 0.509658 1 0 ack 40 ------- 0 1.0 0.0 46 97
+ 0.509658 0 1 tcp 1540 ------- 0 0.0 1.0 66 117
- 0.509658 0 1 tcp 1540 ------- 0 0.0 1.0 66 117
r 0.50974 1 0 ack 40 ------- 0 1.0 0.0 47 98
+ 0.50974 0 1 tcp 1540 ------- 0 0.0 1.0 67 118
- 0.50974 0 1 tcp 1540 ------- 0 0.0 1.0 67 118
r 0.509822 1 0 ack 40 ------- 0 1.0 0.0 48 99
+ 0.509822 0 1 tcp 1540 ------- 0 0.0 1.0 68 119
- 0.509822 0 1 tcp 1540 ------- 0 0.0 1.0 68 119
r 0.509904 1 0 ack 40 ------- 0 1.0 0.0 49 100
+ 0.509904 0 1 tcp 1540 ------- 0 0.0 1.0 69 120
- 0.509904 0 1 tcp 1540 ------- 0 0.0 1.0 69 120
r 0.509986 1 0 ack 40 ------- 0 1.0 0.0 50 101
+ 0.509986 0 1 tcp 1540 ------- 0 0.0 1.0 70 121
- 0.509986 0 1 tcp 1540 ------- 0 0.0 1.0 70 121
r 0.517508 0 1 tcp 1540 ------- 0 0.0 1.0 51 102
+ 0.517508 1 0 ack 40 ------- 0 1.0 0.0 51 122
- 0.517508 1 0 ack 40 ------- 0 1.0 0.0 51 122
r 0.51759 0 1 tcp 1540 ------- 0 0.0 1.0 52 103
+ 0.51759 1 0 ack 40 ------- 0 1.0 0.0 52 123
- 0.51759 1 0 ack 40 ------- 0 1.0 0.0 52 123
r 0.517672 0 1 tcp 1540 ------- 0 0.0 1.0 53 104
+ 0.517672 1 0 ack 40 ------- 0 1.0 0.0 53 124
- 0.517672 1 0 ack 40 ------- 0 1.0 0.0 53 124
r 0.517754 0 1 tcp 1540 ------- 0 0.0 1.0 54 105
+ 0.517754 1 0 ack 40 ------- 0 1.0 0.0 54 125
- 0.517754 1 0 ack 40 ------- 0 1.0 0.0 54 125
r 0.517836 0 1 tcp 1540 ------- 0 0.0 1.0 55 106
+ 0.517836 1 0 ack 40 ------- 0 1.0 0.0 55 126
- 0.517836 1 0 ack 40 ------- 0 1.0 0.0 55 126
r 0.517918 0 1 tcp 1540 ------- 0 0.0 1.0 56 107
+ 0.517918 1 0 ack 40 ------- 0 1.0 0.0 56 127
- 0.517918 1 0 ack 40 ------- 0 1.0 0.0 56 127
r 0.518001 0 1 tcp 1540 ------- 0 0.0 1.0 57 108
+ 0.518001 1 0 ack 40 ------- 0 1.0 0.0 57 128
- 0.518001 1 0 ack 40 ------- 0 1.0 0.0 57 128
r 0.518083 0 1 tcp 1540 ------- 0 0.0 1.0 58 109
+ 0.518083 1 0 ack 40 ------- 0 1.0 0.0 58 129
- 0.518083 1 0 ack 40 ------- 0 1.0 0.0 58 129
r 0.518165 0 1 tcp 1540 ------- 0 0.0 1.0 59 110
+ 0.518165 1 0 ack 40 ------- 0 1.0 0.0 59 130
- 0.518165 1 0 ack 40 ------- 0 1.0 0.0 59 130
r 0.518247 0 1 tcp 1540 ------- 0 0.0 1.0 60 111
+ 0.518247 1 0 ack 40 ------- 0 1.0 0.0 60 131
- 0.518247 1 0 ack 40 ------- 0 1.0 0.0 60 131
r 0.518329 0 1 tcp 1540 ------- 0 0.0 1.0 61 112
+ 0.518329 1 0 ack 40 ------- 0 1.0 0.0 61 132
- 0.518329 1 0 ack 40 ------- 0 1.0 0.0 61 132
r 0.518411 0 1 tcp 1540 ------- 0 0.0 1.0 62 113
+ 0.518411 1 0 ack 40 ------- 0 1.0 0.0 62 133
- 0.518411 1 0 ack 40 ------- 0 1.0 0.0 62 133
r 0.518493 0 1 tcp 1540 ------- 0 0.0 1.0 63 114
+ 0.518493 1 0 ack 40 ------- 0 1.0 0.0 63 134
- 0.518493 1 0 ack 40 ------- 0 1.0 0.0 63 134
r 0.518575 0 1 tcp 1540 ------- 0 0.0 1.0 64 115
+ 0.518575 1 0 ack 40 ------- 0 1.0 0.0 64 135
- 0.518575 1 0 ack 40 ------- 0 1.0 0.0 64 135
r 0.518658 0 1 tcp 1540 ------- 0 0.0 1.0 65 116
+ 0.518658 1 0 ack 40 ------- 0 1.0 0.0 65 136
- 0.518658 1 0 ack 40 ------- 0 1.0 0.0 65 136
r 0.51874 0 1 tcp 1540 ------- 0 0.0 1.0 66 117
+ 0.51874 1 0 ack 40 ------- 0 1.0 0.0 66 137
- 0.51874 1 0 ack 40 ------- 0 1.0 0.0 66 137
r 0.518822 0 1 tcp 1540 ------- 0 0.0 1.0 67 118
+ 0.518822 1 0 ack 40 ------- 0 1.0 0.0 67 138
- 0.518822 1 0 ack 40 ------- 0 1.0 0.0 67 138
r 0.518904 0 1 tcp 1540 ------- 0 0.0 1.0 68 119
+ 0.518904 1 0 ack 40 ------- 0 1.0 0.0 68 139
- 0.518904 1 0 ack 40 ------- 0 1.0 0.0 68 139
r 0.518986 0 1 tcp 1540 ------- 0 0.0 1.0 69 120
+ 0.518986 1 0 ack 40 ------- 0 1.0 0.0 69 140
- 0.518986 1 0 ack 40 ------- 0 1.0 0.0 69 140
r 0.519068 0 1 tcp 1540 ------- 0 0.0 1.0 70 121
+ 0.519068 1 0 ack 40 ------- 0 1.0 0.0 70 141
- 0.519068 1 0 ack 40 ------- 0 1.0 0.0 70 141
r 0.52651 1 0 ack 40 ------- 0 1.0 0.0 51 122
+ 0.52651 0 1 tcp 1540 ------- 0 0.0 1.0 71 142
- 0.52651 0 1 tcp 1540 ------- 0 0.0 1.0 71 142
r 0.526592 1 0 ack 40 ------- 0 1.0 0.0 52 123
+ 0.526592 0 1 tcp 1540 ------- 0 0.0 1.0 72 143
- 0.526592 0 1 tcp 1540 ------- 0 0.0 1.0 72 143
r 0.526674 1 0 ack 40 ------- 0 1.0 0.0 53 124
+ 0.526674 0 1 tcp 1540 ------- 0 0.0 1.0 73 144
- 0.526674 0 1 tcp 1540 ------- 0 0.0 1.0 73 144
r 0.526756 1 0 ack 40 ------- 0 1.0 0.0 54 125
+ 0.526756 0 1 tcp 1540 ------- 0 0.0 1.0 74 145
- 0.526756 0 1 tcp 1540 ------- 0 0.0 1.0 74 145
r 0.526838 1 0 ack 40 ------- 0 1.0 0.0 55 126
+ 0.526838 0 1 tcp 1540 ------- 0 0.0 1.0 75 146
- 0.526838 0 1 tcp 1540 ------- 0 0.0 1.0 75 146
r 0.526921 1 0 ack 40 ------- 0 1.0 0.0 56 127
+ 0.526921 0 1 tcp 1540 ------- 0 0.0 1.0 76 147
- 0.526921 0 1 tcp 1540 ------- 0 0.0 1.0 76 147
r 0.527003 1 0 ack 40 ------- 0 1.0 0.0 57 128
+ 0.527003 0 1 tcp 1540 ------- 0 0.0 1.0 77 148
- 0.527003 0 1 tcp 1540 ------- 0 0.0 1.0 77 148
r 0.527085 1 0 ack 40 ------- 0 1.0 0.0 58 129
+ 0.527085 0 1 tcp 1540 ------- 0 0.0 1.0 78 149
- 0.527085 0 1 tcp 1540 ------- 0 0.0 1.0 78 149
r 0.527167 1 0 ack 40 ------- 0 1.0 0.0 59 130
+ 0.527167 0 1 tcp 1540 ------- 0 0.0 1.0 79 150
- 0.527167 0 1 tcp 1540 ------- 0 0.0 1.0 79 150
r 0.527249 1 0 ack 40 ------- 0 1.0 0.0 60 131
+ 0.527249 0 1 tcp 1540 ------- 0 0.0 1.0 80 151
- 0.527249 0 1 tcp 1540 ------- 0 0.0 1.0 80 151
r 0.527331 1 0 ack 40 ------- 0 1.0 0.0 61 132
+ 0.527331 0 1 tcp 1540 ------- 0 0.0 1.0 81 152
- 0.527331 0 1 tcp 1540 ------- 0 0.0 1.0 81 152
r 0.527413 1 0 ack 40 ------- 0 1.0 0.0 62 133
+ 0.527413 0 1 tcp 1540 ------- 0 0.0 1.0 82 153
- 0.527413 0 1 tcp 1540 ------- 0 0.0 1.0 82 153
r 0.527495 1 0 ack 40 ------- 0 1.0 0.0 63 134
+ 0.527495 0 1 tcp 1540 ------- 0 0.0 1.0 83 154
- 0.527495 0 1 tcp 1540 ------- 0 0.0 1.0 83 154
r 0.527578 1 0 ack 40 ------- 0 1.0 0.0 64 135
+ 0.527578 0 1 tcp 1540 ------- 0 0.0 1.0 84 155
- 0.527578 0 1 tcp 1540 ------- 0 0.0 1.0 84 155
r 0.52766 1 0 ack 40 ------- 0 1.0 0.0 65 136
+ 0.52766 0 1 tcp 1540 ------- 0 0.0 1.0 85 156
- 0.52766 0 1 tcp 1540 ------- 0 0.0 1.0 85 156
r 0.527742 1 0 ack 40 ------- 0 1.0 0.0 66 137
+ 0.527742 0 1 tcp 1540 ------- 0 0.0 1.0 86 157
- 0.527742 0 1 tcp 1540 ------- 0 0.0 1.0 86 157
r 0.527824 1 0 ack 40 ------- 0 1.0 0.0 67 138
+ 0.527824 0 1 tcp 1540 ------- 0 0.0 1.0 87 158
- 0.527824 0 1 tcp 1540 ------- 0 0.0 1.0 87 158
r 0.527906 1 0 ack 40 ------- 0 1.0 0.0 68 139
+ 0.527906 0 1 tcp 1540 ------- 0 0.0 1.0 88 159
- 0.527906 0 1 tcp 1540 ------- 0 0.0 1.0 88 159
r 0.527988 1 0 ack 40 ------- 0 1.0 0.0 69 140
+ 0.527988 0 1 tcp 1540 ------- 0 0.0 1.0 89 160
- 0.527988 0 1 tcp 1540 ------- 0 0.0 1.0 89 160
r 0.52807 1 0 ack 40 ------- 0 1.0 0.0 70 141
+ 0.52807 0 1 tcp 1540 ------- 0 0.0 1.0 90 161
- 0.52807 0 1 tcp 1540 ------- 0 0.0 1.0 90 161
r 0.535592 0 1 tcp 1540 ------- 0 0.0 1.0 71 142
+ 0.535592 1 0 ack 40 ------- 0 1.0 0.0 71 162
- 0.535592 1 0 ack 40 ------- 0 1.0 0.0 71 162
r 0.535674 0 1 tcp 1540 ------- 0 0.0 1.0 72 143
+ 0.535674 1 0 ack 40 ------- 0 1.0 0.0 72 163
- 0.535674 1 0 ack 40 ------- 0 1.0 0.0 72 163
r 0.535756 0 1 tcp 1540 ------- 0 0.0 1.0 73 144
+ 0.535756 1 0 ack 40 ------- 0 1.0 0.0 73 164
- 0.535756 1 0 ack 40 ------- 0 1.0 0.0 73 164
r 0.535838 0 1 tcp 1540 ------- 0 0.0 1.0 74 145
+ 0.535838 1 0 ack 40 ------- 0 1.0 0.0 74 165
- 0.535838 1 0 ack 40 ------- 0 1.0 0.0 74 165
r 0.535921 0 1 tcp 1540 ------- 0 0.0 1.0 75 146
+ 0.535921 1 0 ack 40 ------- 0 1.0 0.0 75 166
- 0.535921 1 0 ack 40 ------- 0 1.0 0.0 75 166
r 0.536003 0 1 tcp 1540 ------- 0 0.0 1.0 76 147
+ 0.536003 1 0 ack 40 ------- 0 1.0 0.0 76 167
- 0.536003 1 0 ack 40 ------- 0 1.0 0.0 76 167
r 0.536085 0 1 tcp 1540 ------- 0 0.0 1.0 77 148
+ 0.536085 1 0 ack 40 ------- 0 1.0 0.0 77 168
- 0.536085 1 0 ack 40 ------- 0 1.0 0.0 77 168
r 0.536167 0 1 tcp 1540 ------- 0 0.0 1.0 78 149
+ 0.536167 1 0 ack 40 ------- 0 1.0 0.0 78 169
- 0.536167 1 0 ack 40 ------- 0 1.0 0.0 78 169
r 0.536249 0 1 tcp 1540 ------- 0 0.0 1.0 79 150
+ 0.536249 1 0 ack 40 ------- 0 1.0 0.0 79 170
- 0.536249 1 0 ack 40 ------- 0 1.0 0.0 79 170
r 0.536331 0 1 tcp 1540 ------- 0 0.0 1.0 80 151
+ 0.536331 1 0 ack 40 ------- 0 1.0 0.0 80 171
- 0.536331 1 0 ack 40 ------- 0 1.0 0.0 80 171
r 0.536413 0 1 tcp 1540 ------- 0 0.0 1.0 81 152
+ 0.536413 1 0 ack 40 ------- 0 1.0 0.0 81 172
- 0.536413 1 0 ack 40 ------- 0 1.0 0.0 81 172
r 0.536495 0 1 tcp 1540 ------- 0 0.0 1.0 82 153
+ 0.536495 1 0 ack 40 ------- 0 1.0 0.0 82 173
- 0.536495 1 0 ack 40 ------- 0 1.0 0.0 82 173
r 0.536578 0 1 tcp 1540 ------- 0 0.0 1.0 83 154
+ 0.536578 1 0 ack 40 ------- 0 1.0 0.0 83 174
- 0.536578 1 0 ack 40 ------- 0 1.0 0.0 83 174
r 0.53666 0 1 tcp 1540 ------- 0 0.0 1.0 84 155
+ 0.53666 1 0 ack 40 ------- 0 1.0 0.0 84 175
- 0.53666 1 0 ack 40 ------- 0 1.0 0.0 84 175
r 0.536742 0 1 tcp 1540 ------- 0 0.0 1.0 85 156
+ 0.536742 1 0 ack 40 ------- 0 1.0 0.0 85 176
- 0.536742 1 0 ack 40 ------- 0 1.0 0.0 85 176
r 0.536824 0 1 tcp 1540 ------- 0 0.0 1.0 86 157
+ 0.536824 1 0 ack 40 ------- 0 1.0 0.0 86 177
- 0.536824 1 0 ack 40 ------- 0 1.0 0.0 86 177
r 0.536906 0 1 tcp 1540 ------- 0 0.0 1.0 87 158
+ 0.536906 1 0 ack 40 ------- 0 1.0 0.0 87 178
- 0.536906 1 0 ack 40 ------- 0 1.0 0.0 87 178
r 0.536988 0 1 tcp 1540 ------- 0 0.0 1.0 88 159
+ 0.536988 1 0 ack 40 ------- 0 1.0 0.0 88 179
- 0.536988 1 0 ack 40 ------- 0 1.0 0.0 88 179
r 0.53707 0 1 tcp 1540 ------- 0 0.0 1.0 89 160
+ 0.53707 1 0 ack 40 ------- 0 1.0 0.0 89 180
- 0.53707 1 0 ack 40 ------- 0 1.0 0.0 89 180
r 0.537153 0 1 tcp 1540 ------- 0 0.0 1.0 90 161
+ 0.537153 1 0 ack 40 ------- 0 1.0 0.0 90 181
- 0.537153 1 0 ack 40 ------- 0 1.0 0.0 90 181
r 0.544594 1 0 ack 40 ------- 0 1.0 0.0 71 162
+ 0.544594 0 1 tcp 1540 ------- 0 0.0 1.0 91 182
- 0.544594 0 1 tcp 1540 ------- 0 0.0 1.0 91 182
r 0.544676 1 0 ack 40 ------- 0 1.0 0.0 72 163
+ 0.544676 0 1 tcp 1540 ------- 0 0.0 1.0 92 183
- 0.544676 0 1 tcp 1540 ------- 0 0.0 1.0 92 183
r 0.544758 1 0 ack 40 ------- 0 1.0 0.0 73 164
+ 0.544758 0 1 tcp 1540 ------- 0 0.0 1.0 93 184
- 0.544758 0 1 tcp 1540 ------- 0 0.0 1.0 93 184
r 0.544841 1 0 ack 40 ------- 0 1.0 0.0 74 165
+ 0.544841 0 1 tcp 1540 ------- 0 0.0 1.0 94 185
- 0.544841 0 1 tcp 1540 ------- 0 0.0 1.0 94 185
r 0.544923 1 0 ack 40 ------- 0 1.0 0.0 75 166
+ 0.544923 0 1 tcp 1540 ------- 0 0.0 1.0 95 186
- 0.544923 0 1 tcp 1540 ------- 0 0.0 1.0 95 186
r 0.545005 1 0 ack 40 ------- 0 1.0 0.0 76 167
+ 0.545005 0 1 tcp 1540 ------- 0 0.0 1.0 96 187
- 0.545005 0 1 tcp 1540 ------- 0 0.0 1.0 96 187
r 0.545087 1 0 ack 40 ------- 0 1.0 0.0 77 168
+ 0.545087 0 1 tcp 1540 ------- 0 0.0 1.0 97 188
- 0.545087 0 1 tcp 1540 ------- 0 0.0 1.0 97 188
r 0.545169 1 0 ack 40 ------- 0 1.0 0.0 78 169
+ 0.545169 0 1 tcp 1540 ------- 0 0.0 1.0 98 189
- 0.545169 0 1 tcp 1540 ------- 0 0.0 1.0 98 189
r 0.545251 1 0 ack 40 ------- 0 1.0 0.0 79 170
+ 0.545251 0 1 tcp 1540 ------- 0 0.0 1.0 99 190
- 0.545251 0 1 tcp 1540 ------- 0 0.0 1.0 99 190
r 0.545333 1 0 ack 40 ------- 0 1.0 0.0 80 171
+ 0.545333 0 1 tcp 1540 ------- 0 0.0 1.0 100 191
- 0.545333 0 1 tcp 1540 ------- 0 0.0 1.0 100 191
r 0.545415 1 0 ack 40 ------- 0 1.0 0.0 81 172
+ 0.545415 0 1 tcp 1540 ------- 0 0.0 1.0 101 192
- 0.545415 0 1 tcp 1540 ------- 0 0.0 1.0 101 192
r 0.545498 1 0 ack 40 ------- 0 1.0 0.0 82 173
+ 0.545498 0 1 tcp 1540 ------- 0 0.0 1.0 102 193
- 0.545498 0 1 tcp 1540 ------- 0 0.0 1.0 102 193
r 0.54558 1 0 ack 40 ------- 0 1.0 0.0 83 174
+ 0.54558 0 1 tcp 1540 ------- 0 0.0 1.0 103 194
- 0.54558 0 1 tcp 1540 ------- 0 0.0 1.0 103 194
r 0.545662 1 0 ack 40 ------- 0 1.0 0.0 84 175
+ 0.545662 0 1 tcp 1540 ------- 0 0.0 1.0 104 195
- 0.545662 0 1 tcp 1540 ------- 0 0.0 1.0 104 195
r 0.545744 1 0 ack 40 ------- 0 1.0 0.0 85 176
+ 0.545744 0 1 tcp 1540 ------- 0 0.0 1.0 105 196
- 0.545744 0 1 tcp 1540 ------- 0 0.0 1.0 105 196
r 0.545826 1 0 ack 40 ------- 0 1.0 0.0 86 177
+ 0.545826 0 1 tcp 1540 ------- 0 0.0 1.0 106 197
- 0.545826 0 1 tcp 1540 ------- 0 0.0 1.0 106 197
r 0.545908 1 0 ack 40 ------- 0 1.0 0.0 87 178
+ 0.545908 0 1 tcp 1540 ------- 0 0.0 1.0 107 198
- 0.545908 0 1 tcp 1540 ------- 0 0.0 1.0 107 198
r 0.54599 1 0 ack 40 ------- 0 1.0 0.0 88 179
+ 0.54599 0 1 tcp 1540 ------- 0 0.0 1.0 108 199
- 0.54599 0 1 tcp 1540 ------- 0 0.0 1.0 108 199
r 0.546073 1 0 ack 40 ------- 0 1.0 0.0 89 180
+ 0.546073 0 1 tcp 1540 ------- 0 0.0 1.0 109 200
- 0.546073 0 1 tcp 1540 ------- 0 0.0 1.0 109 200
r 0.546155 1 0 ack 40 ------- 0 1.0 0.0 90 181
+ 0.546155 0 1 tcp 1540 ------- 0 0.0 1.0 110 201
- 0.546155 0 1 tcp 1540 ------- 0 0.0 1.0 110 201
r 0.553676 0 1 tcp 1540 ------- 0 0.0 1.0 91 182
+ 0.553676 1 0 ack 40 ------- 0 1.0 0.0 91 202
- 0.553676 1 0 ack 40 ------- 0 1.0 0.0 91 202
r 0.553758 0 1 tcp 1540 ------- 0 0.0 1.0 92 183
+ 0.553758 1 0 ack 40 ------- 0 1.0 0.0 92 203
- 0.553758 1 0 ack 40 ------- 0 1.0 0.0 92 203
r 0.553841 0 1 tcp 1540 ------- 0 0.0 1.0 93 184
+ 0.553841 1 0 ack 40 ------- 0 1.0 0.0 93 204
- 0.553841 1 0 ack 40 ------- 0 1.0 0.0 93 204
r 0.553923 0 1 tcp 1540 ------- 0 0.0 1.0 94 185
+ 0.553923 1 0 ack 40 ------- 0 1.0 0.0 94 205
- 0.553923 1 0 ack 40 ------- 0 1.0 0.0 94 205
r 0.554005 0 1 tcp 1540 ------- 0 0.0 1.0 95 186
+ 0.554005 1 0 ack 40 ------- 0 1.0 0.0 95 206
- 0.554005 1 0 ack 40 ------- 0 1.0 0.0 95 206
r 0.554087 0 1 tcp 1540 ------- 0 0.0 1.0 96 187
+ 0.554087 1 0 ack 40 ------- 0 1.0 0.0 96 207
- 0.554087 1 0 ack 40 ------- 0 1.0 0.0 96 207
r 0.554169 0 1 tcp 1540 ------- 0 0.0 1.0 97 188
+ 0.554169 1 0 ack 40 ------- 0 1.0 0.0 97 208
- 0.554169 1 0 ack 40 ------- 0 1.0 0.0 97 208
r 0.554251 0 1 tcp 1540 ------- 0 0.0 1.0 98 189
+ 0.554251 1 0 ack 40 ------- 0 1.0 0.0 98 209
- 0.554251 1 0 ack 40 ------- 0 1.0 0.0 98 209
r 0.554333 0 1 tcp 1540 ------- 0 0.0 1.0 99 190
+ 0.554333 1 0 ack 40 ------- 0 1.0 0.0 99 210
- 0.554333 1 0 ack 40 ------- 0 1.0 0.0 99 210
r 0.554415 0 1 tcp 1540 ------- 0 0.0 1.0 100 191
+ 0.554415 1 0 ack 40 ------- 0 1.0 0.0 100 211
- 0.554415 1 0 ack 40 ------- 0 1.0 0.0 100 211
r 0.554498 0 1 tcp 1540 ------- 0 0.0 1.0 101 192
+ 0.554498 1 0 ack 40 ------- 0 1.0 0.0 101 212
- 0.554498 1 0 ack 40 ------- 0 1.0 0.0 101 212
r 0.55458 0 1 tcp 1540 ------- 0 0.0 1.0 102 193
+ 0.55458 1 0 ack 40 ------- 0 1.0 0.0 102 213
- 0.55458 1 0 ack 40 ------- 0 1.0 0.0 102 213
r 0.554662 0 1 tcp 1540 ------- 0 0.0 1.0 103 194
+ 0.554662 1 0 ack 40 ------- 0 1.0 0.0 103 214
- 0.554662 1 0 ack 40 ------- 0 1.0 0.0 103 214
r 0.554744 0 1 tcp 1540 ------- 0 0.0 1.0 104 195
+ 0.554744 1 0 ack 40 ------- 0 1.0 0.0 104 215
- 0.554744 1 0 ack 40 ------- 0 1.0 0.0 104 215
r 0.554826 0 1 tcp 1540 ------- 0 0.0 1.0 105 196
+ 0.554826 1 0 ack 40 ------- 0 1.0 0.0 105 216
- 0.554826 1 0 ack 40 ------- 0 1.0 0.0 105 216
r 0.554908 0 1 tcp 1540 ------- 0 0.0 1.0 106 197
+ 0.554908 1 0 ack 40 ------- 0 1.0 0.0 106 217