V -t * -v 1.0a5 -a 0
A -t * -n 1 -p 0 -o 0x7fffffff -c 30 -a 1
A -t * -h 1 -m 1073741823 -s 0
n -t * -a 0 -s 0 -S UP -v circle -c black -i black
n -t * -a 1 -s 1 -S UP -v circle -c black -i black
l -t * -s 0 -d 1 -S UP -r 150000000 -D 0.0090000000000000011 -c black -o right
+ -t 0.4 -s 0 -d 1 -p tcp -e 40 -c 0 -i 0 -a 0 -x {0.0 1.0 0 ------- null}
- -t 0.4 -s 0 -d 1 -p tcp -e 40 -c 0 -i 0 -a 0 -x {0.0 1.0 0 ------- null}
h -t 0.4 -s 0 -d 1 -p tcp -e 40 -c 0 -i 0 -a 0 -x {0.0 1.0 -1 ------- null}
r -t 0.409002133333333 -s 0 -d 1 -p tcp -e 40 -c 0 -i 0 -a 0 -x {0.0 1.0 0 ------- null}
+ -t 0.409002133333333 -s 1 -d 0 -p ack -e 40 -c 0 -i 1 -a 0 -x {1.0 0.0 0 ------- null}
- -t 0.409002133333333 -s 1 -d 0 -p ack -e 40 -c 0 -i 1 -a 0 -x {1.0 0.0 0 ------- null}
h -t 0.409002133333333 -s 1 -d 0 -p ack -e 40 -c 0 -i 1 -a 0 -x {1.0 0.0 -1 ------- null}
r -t 0.418004266666667 -s 1 -d 0 -p ack -e 40 -c 0 -i 1 -a 0 -x {1.0 0.0 0 ------- null}
+ -t 0.418004266666667 -s 0 -d 1 -p tcp -e 1540 -c 0 -i 2 -a 0 -x {0.0 1.0 1 ------- null}
- -t 0.418004266666667 -s 0 -d 1 -p tcp -e 1540 -c 0 -i 2 -a 0 -x {0.0 1.0 1 ------- null}
h -t 0.418004266666667 -s 0 -d 1 -p tcp -e 1540 -c 0 -i 2 -a 0 -x {0.0 1.0 -1 ------- null}
+ -t 0.418004266666667 -s 0 -d 1 -p tcp -e 1540 -c 0 -i 3 -a 0 -x {0.0 1.0 2 ------- null}
- -t 0.4180864 -s 0 -d 1 -p tcp -e 1540 -c 0 -i 3 -a 0 -x {0.0 1.0 2 ------- null}
h -t 0.4180864 -s 0 -d 1 -p tcp -e 1540 -c 0 -i 3 -a 0 -x {0.0 1.0 -1 ------- null}
r -t 0.4270864 -s 0 -d 1 -p tcp -e 1540 -c 0 -i 2 -a 0 -x {0.0 1.0 1 ------- null}
+ -t 0.4270864 -s 1 -d 0 -p ack -e 40 -c 0 -i 4 -a 0 -x {1.0 0.0 1 ------- null}
- -t 0.4270864 -s 1 -d 0 -p ack -e 40 -c 0 -i 4 -a 0 -x {1.0 0.0 1 ------- null}
h -t 0.4270864 -s 1 -d 0 -p ack -e 40 -c 0 -i 4 -a 0 -x {1.0 0.0 -1 ------- null}
r -t 0.427168533333333 -s 0 -d 1 -p tcp -e 1540 -c 0 -i 3 -a 0 -x {0.0 1.0 2 ------- null}
+ -t 0.427168533333333 -s 1 -d 0 -p ack -e 40 -c 0 -i 5 -a 0 -x {1.0 0.0 2 ------- null}
- -t 0.427168533333333 -s 1 -d 0 -p ack -e 40 -c 0 -i 5 -a 0 -x {1.0 0.0 2 ------- null}
h -t 0.427168533333333 -s 1 -d 0 -p ack -e 40 -c 0 -i 5 -a 0 -x {1.0 0.0 -1 ------- null}
r -t 0.436088533333333 -s 1 -d 0 -p ack -e 40 -c 0 -i 4 -a 0 -x {1.0 0.0 1 ------- null}
+ -t 0.436088533333333 -s 0 -d 1 -p tcp -e 1540 -c 0 -i 6 -a 0 -x {0.0 1.0 3 ------- null}
- -t 0.436088533333333 -s 0 -d 1 -p tcp -e 1540 -c 0 -i 6 -a 0 -x {0.0 1.0 3 ------- null}
h -t 0.436088533333333 -s 0 -d 1 -p tcp -e 1540 -c 0 -i 6 -a 0 -x {0.0 1.0 -1 ------- null}
+ -t 0.436088533333333 -s 0 -d 1 -p tcp -e 1540 -c 0 -i 7 -a 0 -x {0.0 1.0 4 ------- null}
r -t 0.436170666666667 -s 1 -d 0 -p ack -e 40 -c 0 -i 5 -a 0 -x {1.0 0.0 2 ------- null}
+ -t 0.436170666666667 -s 0 -d 1 -p tcp -e 1540 -c 0 -i 8 -a 0 -x {0.0 1.0 5 ------- null}
+ -t 0.436170666666667 -s 0 -d 1 -p tcp -e 1540 -c 0 -i 9 -a 0 -x {0.0 1.0 6 ------- null}
- -t 0.436170666666667 -s 0 -d 1 -p tcp -e 1540 -c 0 -i 7 -a 0 -x {0.0 1.0 4 ------- null}
h -t 0.436170666666667 -s 0 -d 1 -p tcp -e 1540 -c 0 -i 7 -a 0 -x {0.0 1.0 -1 ------- null}
- -t 0.4362528 -s 0 -d 1 -p tcp -e 1540 -c 0 -i 8 -a 0 -x {0.0 1.0 5 ------- null}
h -t 0.4362528 -s 0 -d 1 -p tcp -e 1540 -c 0 -i 8 -a 0 -x {0.0 1.0 -1 ------- null}
- -t 0.436334933333333 -s 0 -d 1 -p tcp -e 1540 -c 0 -i 9 -a 0 -x {0.0 1.0 6 ------- null}
h -t 0.436334933333333 -s 0 -d 1 -p tcp -e 1540 -c 0 -i 9 -a 0 -x {0.0 1.0 -1 ------- null}
r -t 0.445170666666667 -s 0 -d 1 -p tcp -e 1540 -c 0 -i 6 -a 0 -x {0.0 1.0 3 ------- null}
+ -t 0.445170666666667 -s 1 -d 0 -p ack -e 40 -c 0 -i 10 -a 0 -x {1.0 0.0 3 ------- null}
- -t 0.445170666666667 -s 1 -d 0 -p ack -e 40 -c 0 -i 10 -a 0 -x {1.0 0.0 3 ------- null}
h -t 0.445170666666667 -s 1 -d 0 -p ack -e 40 -c 0 -i 10 -a 0 -x {1.0 0.0 -1 ------- null}
r -t 0.4452528 -s 0 -d 1 -p tcp -e 1540 -c 0 -i 7 -a 0 -x {0.0 1.0 4 ------- null}
+ -t 0.4452528 -s 1 -d 0 -p ack -e 40 -c 0 -i 11 -a 0 -x {1.0 0.0 4 ------- null}
- -t 0.4452528 -s 1 -d 0 -p ack -e 40 -c 0 -i 11 -a 0 -x {1.0 0.0 4 ------- null}
h -t 0.4452528 -s 1 -d 0 -p ack -e 40 -c 0 -i 11 -a 0 -x {1.0 0.0 -1 ------- null}
r -t 0.445334933333333 -s 0 -d 1 -p tcp -e 1540 -c 0 -i 8 -a 0 -x {0.0 1.0 5 ------- null}
+ -t 0.445334933333333 -s 1 -d 0 -p ack -e 40 -c 0 -i 12 -a 0 -x {1.0 0.0 5 ------- null}
- -t 0.445334933333333 -s 1 -d 0 -p ack -e 40 -c 0 -i 12 -a 0 -x {1.0 0.0 5 ------- null}
h -t 0.445334933333333 -s 1 -d 0 -p ack -e 40 -c 0 -i 12 -a 0 -x {1.0 0.0 -1 ------- null}
r -t 0.445417066666667 -s 0 -d 1 -p tcp -e 1540 -c 0 -i 9 -a 0 -x {0.0 1.0 6 ------- null}
+ -t 0.445417066666667 -s 1 -d 0 -p ack -e 40 -c 0 -i 13 -a 0 -x {1.0 0.0 6 ------- null}
- -t 0.445417066666667 -s 1 -d 0 -p ack -e 40 -c 0 -i 13 -a 0 -x {1.0 0.0 6 ------- null}
h -t 0.445417066666667 -s 1 -d 0 -p ack -e 40 -c 0 -i 13 -a 0 -x {1.0 0.0 -1 ------- null}
r -t 0.4541728 -s 1 -d 0 -p ack -e 40 -c 0 -i 10 -a 0 -x {1.0 0.0 3 ------- null}
+ -t 0.4541728 -s 0 -d 1 -p tcp -e 1540 -c 0 -i 14 -a 0 -x {0.0 1.0 7 ------- null}
- -t 0.4541728 -s 0 -d 1 -p tcp -e 1540 -c 0 -i 14 -a 0 -x {0.0 1.0 7 ------- null}
h -t 0.4541728 -s 0 -d 1 -p tcp -e 1540 -c 0 -i 14 -a 0 -x {0.0 1.0 -1 ------- null}
+ -t 0.4541728 -s 0 -d 1 -p tcp -e 1540 -c 0 -i 15 -a 0 -x {0.0 1.0 8 ------- null}
r -t 0.454254933333333 -s 1 -d 0 -p ack -e 40 -c 0 -i 11 -a 0 -x {1.0 0.0 4 ------- null}
+ -t 0.454254933333333 -s 0 -d 1 -p tcp -e 1540 -c 0 -i 16 -a 0 -x {0.0 1.0 9 ------- null}
+ -t 0.454254933333333 -s 0 -d 1 -p tcp -e 1540 -c 0 -i 17 -a 0 -x {0.0 1.0 10 ------- null}
- -t 0.454254933333333 -s 0 -d 1 -p tcp -e 1540 -c 0 -i 15 -a 0 -x {0.0 1.0 8 ------- null}
h -t 0.454254933333333 -s 0 -d 1 -p tcp -e 1540 -c 0 -i 15 -a 0 -x {0.0 1.0 -1 ------- null}
r -t 0.454337066666667 -s 1 -d 0 -p ack -e 40 -c 0 -i 12 -a 0 -x {1.0 0.0 5 ------- null}
+ -t 0.454337066666667 -s 0 -d 1 -p tcp -e 1540 -c 0 -i 18 -a 0 -x {0.0 1.0 11 ------- null}
+ -t 0.454337066666667 -s 0 -d 1 -p tcp -e 1540 -c 0 -i 19 -a 0 -x {0.0 1.0 12 ------- null}
- -t 0.454337066666667 -s 0 -d 1 -p tcp -e 1540 -c 0 -i 16 -a 0 -x {0.0 1.0 9 ------- null}
h -t 0.454337066666667 -s 0 -d 1 -p tcp -e 1540 -c 0 -i 16 -a 0 -x {0.0 1.0 -1 ------- null}
r -t 0.4544192 -s 1 -d 0 -p ack -e 40 -c 0 -i 13 -a 0 -x {1.0 0.0 6 ------- null}
+ -t 0.4544192 -s 0 -d 1 -p tcp -e 1540 -c 0 -i 20 -a 0 -x {0.0 1.0 13 ------- null}
+ -t 0.4544192 -s 0 -d 1 -p tcp -e 1540 -c 0 -i 21 -a 0 -x {0.0 1.0 14 ------- null}
- -t 0.4544192 -s 0 -d 1 -p tcp -e 1540 -c 0 -i 17 -a 0 -x {0.0 1.0 10 ------- null}
h -t 0.4544192 -s 0 -d 1 -p tcp -e 1540 -c 0 -i 17 -a 0 -x {0.0 1.0 -1 ------- null}
- -t 0.454501333333333 -s 0 -d 1 -p tcp -e 1540 -c 0 -i 18 -a 0 -x {0.0 1.0 11 ------- null}
h -t 0.454501333333333 -s 0 -d 1 -p tcp -e 1540 -c 0 -i 18 -a 0 -x {0.0 1.0 -1 ------- null}
- -t 0.454583466666667 -s 0 -d 1 -p tcp -e 1540 -c 0 -i 19 -a 0 -x {0.0 1.0 12 ------- null}
h -t 0.454583466666667 -s 0 -d 1 -p tcp -e 1540 -c 0 -i 19 -a 0 -x {0.0 1.0 -1 ------- null}
- -t 0.4546656 -s 0 -d 1 -p tcp -e 1540 -c 0 -i 20 -a 0 -x {0.0 1.0 13 ------- null}
h -t 0.4546656 -s 0 -d 1 -p tcp -e 1540 -c 0 -i 20 -a 0 -x {0.0 1.0 -1 ------- null}
- -t 0.454747733333333 -s 0 -d 1 -p tcp -e 1540 -c 0 -i 21 -a 0 -x {0.0 1.0 14 ------- null}
h -t 0.454747733333333 -s 0 -d 1 -p tcp -e 1540 -c 0 -i 21 -a 0 -x {0.0 1.0 -1 ------- null}
r -t 0.463254933333333 -s 0 -d 1 -p tcp -e 1540 -c 0 -i 14 -a 0 -x {0.0 1.0 7 ------- null}
+ -t 0.463254933333333 -s 1 -d 0 -p ack -e 40 -c 0 -i 22 -a 0 -x {1.0 0.0 7 ------- null}
- -t 0.463254933333333 -s 1 -d 0 -p ack -e 40 -c 0 -i 22 -a 0 -x {1.0 0.0 7 ------- null}
h -t 0.463254933333333 -s 1 -d 0 -p ack -e 40 -c 0 -i 22 -a 0 -x {1.0 0.0 -1 ------- null}
r -t 0.463337066666667 -s 0 -d 1 -p tcp -e 1540 -c 0 -i 15 -a 0 -x {0.0 1.0 8 ------- null}
+ -t 0.463337066666667 -s 1 -d 0 -p ack -e 40 -c 0 -i 23 -a 0 -x {1.0 0.0 8 ------- null}
- -t 0.463337066666667 -s 1 -d 0 -p ack -e 40 -c 0 -i 23 -a 0 -x {1.0 0.0 8 ------- null}
h -t 0.463337066666667 -s 1 -d 0 -p ack -e 40 -c 0 -i 23 -a 0 -x {1.0 0.0 -1 ------- null}
r -t 0.4634192 -s 0 -d 1 -p tcp -e 1540 -c 0 -i 16 -a 0 -x {0.0 1.0 9 ------- null}
+ -t 0.4634192 -s 1 -d 0 -p ack -e 40 -c 0 -i 24 -a 0 -x {1.0 0.0 9 ------- null}
- -t 0.4634192 -s 1 -d 0 -p ack -e 40 -c 0 -i 24 -a 0 -x {1.0 0.0 9 ------- null}
h -t 0.4634192 -s 1 -d 0 -p ack -e 40 -c 0 -i 24 -a 0 -x {1.0 0.0 -1 ------- null}
r -t 0.463501333333333 -s 0 -d 1 -p tcp -e 1540 -c 0 -i 17 -a 0 -x {0.0 1.0 10 ------- null}
+ -t 0.463501333333333 -s 1 -d 0 -p ack -e 40 -c 0 -i 25 -a 0 -x {1.0 0.0 10 ------- null}
- -t 0.463501333333333 -s 1 -d 0 -p ack -e 40 -c 0 -i 25 -a 0 -x {1.0 0.0 10 ------- null}
h -t 0.463501333333333 -s 1 -d 0 -p ack -e 40 -c 0 -i 25 -a 0 -x {1.0 0.0 -1 ------- null}
r -t 0.463583466666667 -s 0 -d 1 -p tcp -e 1540 -c 0 -i 18 -a 0 -x {0.0 1.0 11 ------- null}
+ -t 0.463583466666667 -s 1 -d 0 -p ack -e 40 -c 0 -i 26 -a 0 -x {1.0 0.0 11 ------- null}
- -t 0.463583466666667 -s 1 -d 0 -p ack -e 40 -c 0 -i 26 -a 0 -x {1.0 0.0 11 ------- null}
h -t 0.463583466666667 -s 1 -d 0 -p ack -e 40 -c 0 -i 26 -a 0 -x {1.0 0.0 -1 ------- null}
r -t 0.4636656 -s 0 -d 1 -p tcp -e 1540 -c 0 -i 19 -a 0 -x {0.0 1.0 12 ------- null}
+ -t 0.4636656 -s 1 -d 0 -p ack -e 40 -c 0 -i 27 -a 0 -x {1.0 0.0 12 ------- null}
- -t 0.4636656 -s 1 -d 0 -p ack -e 40 -c 0 -i 27 -a 0 -x {1.0 0.0 12 ------- null}
h -t 0.4636656 -s 1 -d 0 -p ack -e 40 -c 0 -i 27 -a 0 -x {1.0 0.0 -1 ------- null}
r -t 0.463747733333333 -s 0 -d 1 -p tcp -e 1540 -c 0 -i 20 -a 0 -x {0.0 1.0 13 ------- null}
+ -t 0.463747733333333 -s 1 -d 0 -p ack -e 40 -c 0 -i 28 -a 0 -x {1.0 0.0 13 ------- null}
- -t 0.463747733333333 -s 1 -d 0 -p ack -e 40 -c 0 -i 28 -a 0 -x {1.0 0.0 13 ------- null}
h -t 0.463747733333333 -s 1 -d 0 -p ack -e 40 -c 0 -i 28 -a 0 -x {1.0 0.0 -1 ------- null}
r -t 0.463829866666667 -s 0 -d 1 -p tcp -e 1540 -c 0 -i 21 -a 0 -x {0.0 1.0 14 ------- null}
+ -t 0.463829866666667 -s 1 -d 0 -p ack -e 40 -c 0 -i 29 -a 0 -x {1.0 0.0 14 ------- null}
- -t 0.463829866666667 -s 1 -d 0 -p ack -e 40 -c 0 -i 29 -a 0 -x {1.0 0.0 14 ------- null}
h -t 0.463829866666667 -s 1 -d 0 -p ack -e 40 -c 0 -i 29 -a 0 -x {1.0 0.0 -1 ------- null}
r -t 0.472257066666667 -s 1 -d 0 -p ack -e 40 -c 0 -i 22 -a 0 -x {1.0 0.0 7 ------- null}
+ -t 0.472257066666667 -s 0 -d 1 -p tcp -e 1540 -c 0 -i 30 -a 0 -x {0.0 1.0 15 ------- null}
- -t 0.472257066666667 -s 0 -d 1 -p tcp -e 1540 -c 0 -i 30 -a 0 -x {0.0 1.0 15 ------- null}
h -t 0.472257066666667 -s 0 -d 1 -p tcp -e 1540 -c 0 -i 30 -a 0 -x {0.0 1.0 -1 ------- null}
+ -t 0.472257066666667 -s 0 -d 1 -p tcp -e 1540 -c 0 -i 31 -a 0 -x {0.0 1.0 16 ------- null}
r -t 0.4723392 -s 1 -d 0 -p ack -e 40 -c 0 -i 23 -a 0 -x {1.0 0.0 8 ------- null}
+ -t 0.4723392 -s 0 -d 1 -p tcp -e 1540 -c 0 -i 32 -a 0 -x {0.0 1.0 17 ------- null}
+ -t 0.4723392 -s 0 -d 1 -p tcp -e 1540 -c 0 -i 33 -a 0 -x {0.0 1.0 18 ------- null}
- -t 0.4723392 -s 0 -d 1 -p tcp -e 1540 -c 0 -i 31 -a 0 -x {0.0 1.0 16 ------- null}
h -t 0.4723392 -s 0 -d 1 -p tcp -e 1540 -c 0 -i 31 -a 0 -x {0.0 1.0 -1 ------- null}
r -t 0.472421333333333 -s 1 -d 0 -p ack -e 40 -c 0 -i 24 -a 0 -x {1.0 0.0 9 ------- null}
+ -t 0.472421333333333 -s 0 -d 1 -p tcp -e 1540 -c 0 -i 34 -a 0 -x {0.0 1.0 19 ------- null}
+ -t 0.472421333333333 -s 0 -d 1 -p tcp -e 1540 -c 0 -i 35 -a 0 -x {0.0 1.0 20 ------- null}
- -t 0.472421333333333 -s 0 -d 1 -p tcp -e 1540 -c 0 -i 32 -a 0 -x {0.0 1.0 17 ------- null}
h -t 0.472421333333333 -s 0 -d 1 -p tcp -e 1540 -c 0 -i 32 -a 0 -x {0.0 1.0 -1 ------- null}
r -t 0.472503466666667 -s 1 -d 0 -p ack -e 40 -c 0 -i 25 -a 0 -x {1.0 0.0 10 ------- null}
+ -t 0.472503466666667 -s 0 -d 1 -p tcp -e 1540 -c 0 -i 36 -a 0 -x {0.0 1.0 21 ------- null}
+ -t 0.472503466666667 -s 0 -d 1 -p tcp -e 1540 -c 0 -i 37 -a 0 -x {0.0 1.0 22 ------- null}
- -t 0.472503466666667 -s 0 -d 1 -p tcp -e 1540 -c 0 -i 33 -a 0 -x {0.0 1.0 18 ------- null}
h -t 0.472503466666667 -s 0 -d 1 -p tcp -e 1540 -c 0 -i 33 -a 0 -x {0.0 1.0 -1 ------- null}
r -t 0.4725856 -s 1 -d 0 -p ack -e 40 -c 0 -i 26 -a 0 -x {1.0 0.0 11 ------- null}
+ -t 0.4725856 -s 0 -d 1 -p tcp -e 1540 -c 0 -i 38 -a 0 -x {0.0 1.0 23 ------- null}
+ -t 0.4725856 -s 0 -d 1 -p tcp -e 1540 -c 0 -i 39 -a 0 -x {0.0 1.0 24 ------- null}
- -t 0.4725856 -s 0 -d 1 -p tcp -e 1540 -c 0 -i 34 -a 0 -x {0.0 1.0 19 ------- null}
h -t 0.4725856 -s 0 -d 1 -p tcp -e 1540 -c 0 -i 34 -a 0 -x {0.0 1.0 -1 ------- null}
r -t 0.472667733333333 -s 1 -d 0 -p ack -e 40 -c 0 -i 27 -a 0 -x {1.0 0.0 12 ------- null}
+ -t 0.472667733333333 -s 0 -d 1 -p tcp -e 1540 -c 0 -i 40 -a 0 -x {0.0 1.0 25 ------- null}
+ -t 0.472667733333333 -s 0 -d 1 -p tcp -e 1540 -c 0 -i 41 -a 0 -x {0.0 1.0 26 ------- null}
- -t 0.472667733333333 -s 0 -d 1 -p tcp -e 1540 -c 0 -i 35 -a 0 -x {0.0 1.0 20 ------- null}
h -t 0.472667733333333 -s 0 -d 1 -p tcp -e 1540 -c 0 -i 35 -a 0 -x {0.0 1.0 -1 ------- null}
r -t 0.472749866666667 -s 1 -d 0 -p ack -e 40 -c 0 -i 28 -a 0 -x {1.0 0.0 13 ------- null}
+ -t 0.472749866666667 -s 0 -d 1 -p tcp -e 1540 -c 0 -i 42 -a 0 -x {0.0 1.0 27 ------- null}
+ -t 0.472749866666667 -s 0 -d 1 -p tcp -e 1540 -c 0 -i 43 -a 0 -x {0.0 1.0 28 ------- null}
- -t 0.472749866666667 -s 0 -d 1 -p tcp -e 1540 -c 0 -i 36 -a 0 -x {0.0 1.0 21 ------- null}
h -t 0.472749866666667 -s 0 -d 1 -p tcp -e 1540 -c 0 -i 36 -a 0 -x {0.0 1.0 -1 ------- null}
r -t 0.472832 -s 1 -d 0 -p ack -e 40 -c 0 -i 29 -a 0 -x {1.0 0.0 14 ------- null}
+ -t 0.472832 -s 0 -d 1 -p tcp -e 1540 -c 0 -i 44 -a 0 -x {0.0 1.0 29 ------- null}
+ -t 0.472832 -s 0 -d 1 -p tcp -e 1540 -c 0 -i 45 -a 0 -x {0.0 1.0 30 ------- null}
- -t 0.472832 -s 0 -d 1 -p tcp -e 1540 -c 0 -i 37 -a 0 -x {0.0 1.0 22 ------- null}
h -t 0.472832 -s 0 -d 1 -p tcp -e 1540 -c 0 -i 37 -a 0 -x {0.0 1.0 -1 ------- null}
- -t 0.472914133333333 -s 0 -d 1 -p tcp -e 1540 -c 0 -i 38 -a 0 -x {0.0 1.0 23 ------- null}
h -t 0.472914133333333 -s 0 -d 1 -p tcp -e 1540 -c 0 -i 38 -a 0 -x {0.0 1.0 -1 ------- null}
- -t 0.472996266666667 -s 0 -d 1 -p tcp -e 1540 -c 0 -i 39 -a 0 -x {0.0 1.0 24 ------- null}
h -t 0.472996266666667 -s 0 -d 1 -p tcp -e 1540 -c 0 -i 39 -a 0 -x {0.0 1.0 -1 ------- null}
- -t 0.4730784 -s 0 -d 1 -p tcp -e 1540 -c 0 -i 40 -a 0 -x {0.0 1.0 25 ------- null}
h -t 0.4730784 -s 0 -d 1 -p tcp -e 1540 -c 0 -i 40 -a 0 -x {0.0 1.0 -1 ------- null}
- -t 0.473160533333334 -s 0 -d 1 -p tcp -e 1540 -c 0 -i 41 -a 0 -x {0.0 1.0 26 ------- null}
h -t 0.473160533333334 -s 0 -d 1 -p tcp -e 1540 -c 0 -i 41 -a 0 -x {0.0 1.0 -1 ------- null}
- -t 0.473242666666667 -s 0 -d 1 -p tcp -e 1540 -c 0 -i 42 -a 0 -x {0.0 1.0 27 ------- null}
h -t 0.473242666666667 -s 0 -d 1 -p tcp -e 1540 -c 0 -i 42 -a 0 -x {0.0 1.0 -1 ------- null}
- -t 0.4733248 -s 0 -d 1 -p tcp -e 1540 -c 0 -i 43 -a 0 -x {0.0 1.0 28 ------- null}
h -t 0.4733248 -s 0 -d 1 -p tcp -e 1540 -c 0 -i 43 -a 0 -x {0.0 1.0 -1 ------- null}
- -t 0.473406933333334 -s 0 -d 1 -p tcp -e 1540 -c 0 -i 44 -a 0 -x {0.0 1.0 29 ------- null}
h -t 0.473406933333334 -s 0 -d 1 -p tcp -e 1540 -c 0 -i 44 -a 0 -x {0.0 1.0 -1 ------- null}
- -t 0.473489066666667 -s 0 -d 1 -p tcp -e 1540 -c 0 -i 45 -a 0 -x {0.0 1.0 30 ------- null}
h -t 0.473489066666667 -s 0 -d 1 -p tcp -e 1540 -c 0 -i 45 -a 0 -x {0.0 1.0 -1 ------- null}
r -t 0.4813392 -s 0 -d 1 -p tcp -e 1540 -c 0 -i 30 -a 0 -x {0.0 1.0 15 ------- null}
+ -t 0.4813392 -s 1 -d 0 -p ack -e 40 -c 0 -i 46 -a 0 -x {1.0 0.0 15 ------- null}
- -t 0.4813392 -s 1 -d 0 -p ack -e 40 -c 0 -i 46 -a 0 -x {1.0 0.0 15 ------- null}
h -t 0.4813392 -s 1 -d 0 -p ack -e 40 -c 0 -i 46 -a 0 -x {1.0 0.0 -1 ------- null}
r -t 0.481421333333333 -s 0 -d 1 -p tcp -e 1540 -c 0 -i 31 -a 0 -x {0.0 1.0 16 ------- null}
+ -t 0.481421333333333 -s 1 -d 0 -p ack -e 40 -c 0 -i 47 -a 0 -x {1.0 0.0 16 ------- null}
- -t 0.481421333333333 -s 1 -d 0 -p ack -e 40 -c 0 -i 47 -a 0 -x {1.0 0.0 16 ------- null}
h -t 0.481421333333333 -s 1 -d 0 -p ack -e 40 -c 0 -i 47 -a 0 -x {1.0 0.0 -1 ------- null}
r -t 0.481503466666667 -s 0 -d 1 -p tcp -e 1540 -c 0 -i 32 -a 0 -x {0.0 1.0 17 ------- null}
+ -t 0.481503466666667 -s 1 -d 0 -p ack -e 40 -c 0 -i 48 -a 0 -x {1.0 0.0 17 ------- null}
- -t 0.481503466666667 -s 1 -d 0 -p ack -e 40 -c 0 -i 48 -a 0 -x {1.0 0.0 17 ------- null}
h -t 0.481503466666667 -s 1 -d 0 -p ack -e 40 -c 0 -i 48 -a 0 -x {1.0 0.0 -1 ------- null}
r -t 0.4815856 -s 0 -d 1 -p tcp -e 1540 -c 0 -i 33 -a 0 -x {0.0 1.0 18 ------- null}
+ -t 0.4815856 -s 1 -d 0 -p ack -e 40 -c 0 -i 49 -a 0 -x {1.0 0.0 18 ------- null}
- -t 0.4815856 -s 1 -d 0 -p ack -e 40 -c 0 -i 49 -a 0 -x {1.0 0.0 18 ------- null}
h -t 0.4815856 -s 1 -d 0 -p ack -e 40 -c 0 -i 49 -a 0 -x {1.0 0.0 -1 ------- null}
r -t 0.481667733333333 -s 0 -d 1 -p tcp -e 1540 -c 0 -i 34 -a 0 -x {0.0 1.0 19 ------- null}
+ -t 0.481667733333333 -s 1 -d 0 -p ack -e 40 -c 0 -i 50 -a 0 -x {1.0 0.0 19 ------- null}
- -t 0.481667733333333 -s 1 -d 0 -p ack -e 40 -c 0 -i 50 -a 0 -x {1.0 0.0 19 ------- null}
h -t 0.481667733333333 -s 1 -d 0 -p ack -e 40 -c 0 -i 50 -a 0 -x {1.0 0.0 -1 ------- null}
r -t 0.481749866666667 -s 0 -d 1 -p tcp -e 1540 -c 0 -i 35 -a 0 -x {0.0 1.0 20 ------- null}
+ -t 0.481749866666667 -s 1 -d 0 -p ack -e 40 -c 0 -i 51 -a 0 -x {1.0 0.0 20 ------- null}
- -t 0.481749866666667 -s 1 -d 0 -p ack -e 40 -c 0 -i 51 -a 0 -x {1.0 0.0 20 ------- null}
h -t 0.481749866666667 -s 1 -d 0 -p ack -e 40 -c 0 -i 51 -a 0 -x {1.0 0.0 -1 ------- null}
r -t 0.481832 -s 0 -d 1 -p tcp -e 1540 -c 0 -i 36 -a 0 -x {0.0 1.0 21 ------- null}
+ -t 0.481832 -s 1 -d 0 -p ack -e 40 -c 0 -i 52 -a 0 -x {1.0 0.0 21 ------- null}
- -t 0.481832 -s 1 -d 0 -p ack -e 40 -c 0 -i 52 -a 0 -x {1.0 0.0 21 ------- null}
h -t 0.481832 -s 1 -d 0 -p ack -e 40 -c 0 -i 52 -a 0 -x {1.0 0.0 -1 ------- null}
r -t 0.481914133333333 -s 0 -d 1 -p tcp -e 1540 -c 0 -i 37 -a 0 -x {0.0 1.0 22 ------- null}
+ -t 0.481914133333333 -s 1 -d 0 -p ack -e 40 -c 0 -i 53 -a 0 -x {1.0 0.0 22 ------- null}
- -t 0.481914133333333 -s 1 -d 0 -p ack -e 40 -c 0 -i 53 -a 0 -x {1.0 0.0 22 ------- null}
h -t 0.481914133333333 -s 1 -d 0 -p ack -e 40 -c 0 -i 53 -a 0 -x {1.0 0.0 -1 ------- null}
r -t 0.481996266666667 -s 0 -d 1 -p tcp -e 1540 -c 0 -i 38 -a 0 -x {0.0 1.0 23 ------- null}
+ -t 0.481996266666667 -s 1 -d 0 -p ack -e 40 -c 0 -i 54 -a 0 -x {1.0 0.0 23 ------- null}
- -t 0.481996266666667 -s 1 -d 0 -p ack -e 40 -c 0 -i 54 -a 0 -x {1.0 0.0 23 ------- null}
h -t 0.481996266666667 -s 1 -d 0 -p ack -e 40 -c 0 -i 54 -a 0 -x {1.0 0.0 -1 ------- null}
r -t 0.4820784 -s 0 -d 1 -p tcp -e 1540 -c 0 -i 39 -a 0 -x {0.0 1.0 24 ------- null}
+ -t 0.4820784 -s 1 -d 0 -p ack -e 40 -c 0 -i 55 -a 0 -x {1.0 0.0 24 ------- null}
- -t 0.4820784 -s 1 -d 0 -p ack -e 40 -c 0 -i 55 -a 0 -x {1.0 0.0 24 ------- null}
h -t 0.4820784 -s 1 -d 0 -p ack -e 40 -c 0 -i 55 -a 0 -x {1.0 0.0 -1 ------- null}
r -t 0.482160533333334 -s 0 -d 1 -p tcp -e 1540 -c 0 -i 40 -a 0 -x {0.0 1.0 25 ------- null}
+ -t 0.482160533333334 -s 1 -d 0 -p ack -e 40 -c 0 -i 56 -a 0 -x {1.0 0.0 25 ------- null}
- -t 0.482160533333334 -s 1 -d 0 -p ack -e 40 -c 0 -i 56 -a 0 -x {1.0 0.0 25 ------- null}
h -t 0.482160533333334 -s 1 -d 0 -p ack -e 40 -c 0 -i 56 -a 0 -x {1.0 0.0 -1 ------- null}
r -t 0.482242666666667 -s 0 -d 1 -p tcp -e 1540 -c 0 -i 41 -a 0 -x {0.0 1.0 26 ------- null}
+ -t 0.482242666666667 -s 1 -d 0 -p ack -e 40 -c 0 -i 57 -a 0 -x {1.0 0.0 26 ------- null}
- -t 0.482242666666667 -s 1 -d 0 -p ack -e 40 -c 0 -i 57 -a 0 -x {1.0 0.0 26 ------- null}
h -t 0.482242666666667 -s 1 -d 0 -p ack -e 40 -c 0 -i 57 -a 0 -x {1.0 0.0 -1 ------- null}
r -t 0.4823248 -s 0 -d 1 -p tcp -e 1540 -c 0 -i 42 -a 0 -x {0.0 1.0 27 ------- null}
+ -t 0.4823248 -s 1 -d 0 -p ack -e 40 -c 0 -i 58 -a 0 -x {1.0 0.0 27 ------- null}
- -t 0.4823248 -s 1 -d 0 -p ack -e 40 -c 0 -i 58 -a 0 -x {1.0 0.0 27 ------- null}
h -t 0.4823248 -s 1 -d 0 -p ack -e 40 -c 0 -i 58 -a 0 -x {1.0 0.0 -1 ------- null}
r -t 0.482406933333334 -s 0 -d 1 -p tcp -e 1540 -c 0 -i 43 -a 0 -x {0.0 1.0 28 ------- null}
+ -t 0.482406933333334 -s 1 -d 0 -p ack -e 40 -c 0 -i 59 -a 0 -x {1.0 0.0 28 ------- null}
- -t 0.482406933333334 -s 1 -d 0 -p ack -e 40 -c 0 -i 59 -a 0 -x {1.0 0.0 28 ------- null}
h -t 0.482406933333334 -s 1 -d 0 -p ack -e 40 -c 0 -i 59 -a 0 -x {1.0 0.0 -1 ------- null}
r -t 0.482489066666667 -s 0 -d 1 -p tcp -e 1540 -c 0 -i 44 -a 0 -x {0.0 1.0 29 ------- null}
+ -t 0.482489066666667 -s 1 -d 0 -p ack -e 40 -c 0 -i 60 -a 0 -x {1.0 0.0 29 ------- null}
- -t 0.482489066666667 -s 1 -d 0 -p ack -e 40 -c 0 -i 60 -a 0 -x {1.0 0.0 29 ------- null}
h -t 0.482489066666667 -s 1 -d 0 -p ack -e 40 -c 0 -i 60 -a 0 -x {1.0 0.0 -1 ------- null}
r -t 0.4825712 -s 0 -d 1 -p tcp -e 1540 -c 0 -i 45 -a 0 -x {0.0 1.0 30 ------- null}
+ -t 0.4825712 -s 1 -d 0 -p ack -e 40 -c 0 -i 61 -a 0 -x {1.0 0.0 30 ------- null}
- -t 0.4825712 -s 1 -d 0 -p ack -e 40 -c 0 -i 61 -a 0 -x {1.0 0.0 30 ------- null}
h -t 0.4825712 -s 1 -d 0 -p ack -e 40 -c 0 -i 61 -a 0 -x {1.0 0.0 -1 ------- null}
r -t 0.490341333333333 -s 1 -d 0 -p ack -e 40 -c 0 -i 46 -a 0 -x {1.0 0.0 15 ------- null}
+ -t 0.490341333333333 -s 0 -d 1 -p tcp -e 1540 -c 0 -i 62 -a 0 -x {0.0 1.0 31 ------- null}
- -t 0.490341333333333 -s 0 -d 1 -p tcp -e 1540 -c 0 -i 62 -a 0 -x {0.0 1.0 31 ------- null}
h -t 0.490341333333333 -s 0 -d 1 -p tcp -e 1540 -c 0 -i 62 -a 0 -x {0.0 1.0 -1 ------- null}
+ -t 0.490341333333333 -s 0 -d 1 -p tcp -e 1540 -c 0 -i 63 -a 0 -x {0.0 1.0 32 ------- null}
r -t 0.490423466666667 -s 1 -d 0 -p ack -e 40 -c 0 -i 47 -a 0 -x {1.0 0.0 16 ------- null}
+ -t 0.490423466666667 -s 0 -d 1 -p tcp -e 1540 -c 0 -i 64 -a 0 -x {0.0 1.0 33 ------- null}
+ -t 0.490423466666667 -s 0 -d 1 -p tcp -e 1540 -c 0 -i 65 -a 0 -x {0.0 1.0 34 ------- null}
- -t 0.490423466666667 -s 0 -d 1 -p tcp -e 1540 -c 0 -i 63 -a 0 -x {0.0 1.0 32 ------- null}
h -t 0.490423466666667 -s 0 -d 1 -p tcp -e 1540 -c 0 -i 63 -a 0 -x {0.0 1.0 -1 ------- null}
r -t 0.4905056 -s 1 -d 0 -p ack -e 40 -c 0 -i 48 -a 0 -x {1.0 0.0 17 ------- null}
+ -t 0.4905056 -s 0 -d 1 -p tcp -e 1540 -c 0 -i 66 -a 0 -x {0.0 1.0 35 ------- null}
+ -t 0.4905056 -s 0 -d 1 -p tcp -e 1540 -c 0 -i 67 -a 0 -x {0.0 1.0 36 ------- null}
- -t 0.4905056 -s 0 -d 1 -p tcp -e 1540 -c 0 -i 64 -a 0 -x {0.0 1.0 33 ------- null}
h -t 0.4905056 -s 0 -d 1 -p tcp -e 1540 -c 0 -i 64 -a 0 -x {0.0 1.0 -1 ------- null}
r -t 0.490587733333333 -s 1 -d 0 -p ack -e 40 -c 0 -i 49 -a 0 -x {1.0 0.0 18 ------- null}
+ -t 0.490587733333333 -s 0 -d 1 -p tcp -e 1540 -c 0 -i 68 -a 0 -x {0.0 1.0 37 ------- null}
+ -t 0.490587733333333 -s 0 -d 1 -p tcp -e 1540 -c 0 -i 69 -a 0 -x {0.0 1.0 38 ------- null}
- -t 0.490587733333333 -s 0 -d 1 -p tcp -e 1540 -c 0 -i 65 -a 0 -x {0.0 1.0 34 ------- null}
h -t 0.490587733333333 -s 0 -d 1 -p tcp -e 1540 -c 0 -i 65 -a 0 -x {0.0 1.0 -1 ------- null}
r -t 0.490669866666667 -s 1 -d 0 -p ack -e 40 -c 0 -i 50 -a 0 -x {1.0 0.0 19 ------- null}
+ -t 0.490669866666667 -s 0 -d 1 -p tcp -e 1540 -c 0 -i 70 -a 0 -x {0.0 1.0 39 ------- null}
- -t 0.490669866666667 -s 0 -d 1 -p tcp -e 1540 -c 0 -i 66 -a 0 -x {0.0 1.0 35 ------- null}
h -t 0.490669866666667 -s 0 -d 1 -p tcp -e 1540 -c 0 -i 66 -a 0 -x {0.0 1.0 -1 ------- null}
r -t 0.490752 -s 1 -d 0 -p ack -e 40 -c 0 -i 51 -a 0 -x {1.0 0.0 20 ------- null}
+ -t 0.490752 -s 0 -d 1 -p tcp -e 1540 -c 0 -i 71 -a 0 -x {0.0 1.0 40 ------- null}
- -t 0.490752 -s 0 -d 1 -p tcp -e 1540 -c 0 -i 67 -a 0 -x {0.0 1.0 36 ------- null}
h -t 0.490752 -s 0 -d 1 -p tcp -e 1540 -c 0 -i 67 -a 0 -x {0.0 1.0 -1 ------- null}
r -t 0.490834133333333 -s 1 -d 0 -p ack -e 40 -c 0 -i 52 -a 0 -x {1.0 0.0 21 ------- null}
+ -t 0.490834133333333 -s 0 -d 1 -p tcp -e 1540 -c 0 -i 72 -a 0 -x {0.0 1.0 41 ------- null}
- -t 0.490834133333333 -s 0 -d 1 -p tcp -e 1540 -c 0 -i 68 -a 0 -x {0.0 1.0 37 ------- null}
h -t 0.490834133333333 -s 0 -d 1 -p tcp -e 1540 -c 0 -i 68 -a 0 -x {0.0 1.0 -1 ------- null}
r -t 0.490916266666667 -s 1 -d 0 -p ack -e 40 -c 0 -i 53 -a 0 -x {1.0 0.0 22 ------- null}
+ -t 0.490916266666667 -s 0 -d 1 -p tcp -e 1540 -c 0 -i 73 -a 0 -x {0.0 1.0 42 ------- null}
- -t 0.490916266666667 -s 0 -d 1 -p tcp -e 1540 -c 0 -i 69 -a 0 -x {0.0 1.0 38 ------- null}
h -t 0.490916266666667 -s 0 -d 1 -p tcp -e 1540 -c 0 -i 69 -a 0 -x {0.0 1.0 -1 ------- null}
r -t 0.4909984 -s 1 -d 0 -p ack -e 40 -c 0 -i 54 -a 0 -x {1.0 0.0 23 ------- null}
+ -t 0.4909984 -s 0 -d 1 -p tcp -e 1540 -c 0 -i 74 -a 0 -x {0.0 1.0 43 ------- null}
- -t 0.4909984 -s 0 -d 1 -p tcp -e 1540 -c 0 -i 70 -a 0 -x {0.0 1.0 39 ------- null}
h -t 0.4909984 -s 0 -d 1 -p tcp -e 1540 -c 0 -i 70 -a 0 -x {0.0 1.0 -1 ------- null}
r -t 0.491080533333334 -s 1 -d 0 -p ack -e 40 -c 0 -i 55 -a 0 -x {1.0 0.0 24 ------- null}
+ -t 0.491080533333334 -s 0 -d 1 -p tcp -e 1540 -c 0 -i 75 -a 0 -x {0.0 1.0 44 ------- null}
- -t 0.491080533333334 -s 0 -d 1 -p tcp -e 1540 -c 0 -i 71 -a 0 -x {0.0 1.0 40 ------- null}
h -t 0.491080533333334 -s 0 -d 1 -p tcp -e 1540 -c 0 -i 71 -a 0 -x {0.0 1.0 -1 ------- null}
r -t 0.491162666666667 -s 1 -d 0 -p ack -e 40 -c 0 -i 56 -a 0 -x {1.0 0.0 25 ------- null}
+ -t 0.491162666666667 -s 0 -d 1 -p tcp -e 1540 -c 0 -i 76 -a 0 -x {0.0 1.0 45 ------- null}
- -t 0.491162666666667 -s 0 -d 1 -p tcp -e 1540 -c 0 -i 72 -a 0 -x {0.0 1.0 41 ------- null}
h -t 0.491162666666667 -s 0 -d 1 -p tcp -e 1540 -c 0 -i 72 -a 0 -x {0.0 1.0 -1 ------- null}
r -t 0.4912448 -s 1 -d 0 -p ack -e 40 -c 0 -i 57 -a 0 -x {1.0 0.0 26 ------- null}
+ -t 0.4912448 -s 0 -d 1 -p tcp -e 1540 -c 0 -i 77 -a 0 -x {0.0 1.0 46 ------- null}
- -t 0.4912448 -s 0 -d 1 -p tcp -e 1540 -c 0 -i 73 -a 0 -x {0.0 1.0 42 ------- null}
h -t 0.4912448 -s 0 -d 1 -p tcp -e 1540 -c 0 -i 73 -a 0 -x {0.0 1.0 -1 ------- null}
r -t 0.491326933333334 -s 1 -d 0 -p ack -e 40 -c 0 -i 58 -a 0 -x {1.0 0.0 27 ------- null}
+ -t 0.491326933333334 -s 0 -d 1 -p tcp -e 1540 -c 0 -i 78 -a 0 -x {0.0 1.0 47 ------- null}
- -t 0.491326933333334 -s 0 -d 1 -p tcp -e 1540 -c 0 -i 74 -a 0 -x {0.0 1.0 43 ------- null}
h -t 0.491326933333334 -s 0 -d 1 -p tcp -e 1540 -c 0 -i 74 -a 0 -x {0.0 1.0 -1 ------- null}
r -t 0.491409066666667 -s 1 -d 0 -p ack -e 40 -c 0 -i 59 -a 0 -x {1.0 0.0 28 ------- null}
+ -t 0.491409066666667 -s 0 -d 1 -p tcp -e 1540 -c 0 -i 79 -a 0 -x {0.0 1.0 48 ------- null}
- -t 0.491409066666667 -s 0 -d 1 -p tcp -e 1540 -c 0 -i 75 -a 0 -x {0.0 1.0 44 ------- null}
h -t 0.491409066666667 -s 0 -d 1 -p tcp -e 1540 -c 0 -i 75 -a 0 -x {0.0 1.0 -1 ------- null}
r -t 0.4914912 -s 1 -d 0 -p ack -e 40 -c 0 -i 60 -a 0 -x {1.0 0.0 29 ------- null}
+ -t 0.4914912 -s 0 -d 1 -p tcp -e 1540 -c 0 -i 80 -a 0 -x {0.0 1.0 49 ------- null}
- -t 0.4914912 -s 0 -d 1 -p tcp -e 1540 -c 0 -i 76 -a 0 -x {0.0 1.0 45 ------- null}
h -t 0.4914912 -s 0 -d 1 -p tcp -e 1540 -c 0 -i 76 -a 0 -x {0.0 1.0 -1 ------- null}
r -t 0.491573333333334 -s 1 -d 0 -p ack -e 40 -c 0 -i 61 -a 0 -x {1.0 0.0 30 ------- null}
+ -t 0.491573333333334 -s 0 -d 1 -p tcp -e 1540 -c 0 -i 81 -a 0 -x {0.0 1.0 50 ------- null}
- -t 0.491573333333334 -s 0 -d 1 -p tcp -e 1540 -c 0 -i 77 -a 0 -x {0.0 1.0 46 ------- null}
h -t 0.491573333333334 -s 0 -d 1 -p tcp -e 1540 -c 0 -i 77 -a 0 -x {0.0 1.0 -1 ------- null}
- -t 0.491655466666667 -s 0 -d 1 -p tcp -e 1540 -c 0 -i 78 -a 0 -x {0.0 1.0 47 ------- null}
h -t 0.491655466666667 -s 0 -d 1 -p tcp -e 1540 -c 0 -i 78 -a 0 -x {0.0 1.0 -1 ------- null}
- -t 0.4917376 -s 0 -d 1 -p tcp -e 1540 -c 0 -i 79 -a 0 -x {0.0 1.0 48 ------- null}
h -t 0.4917376 -s 0 -d 1 -p tcp -e 1540 -c 0 -i 79 -a 0 -x {0.0 1.0 -1 ------- null}
- -t 0.491819733333334 -s 0 -d 1 -p tcp -e 1540 -c 0 -i 80 -a 0 -x {0.0 1.0 49 ------- null}
h -t 0.491819733333334 -s 0 -d 1 -p tcp -e 1540 -c 0 -i 80 -a 0 -x {0.0 1.0 -1 ------- null}
- -t 0.491901866666667 -s 0 -d 1 -p tcp -e 1540 -c 0 -i 81 -a 0 -x {0.0 1.0 50 ------- null}
h -t 0.491901866666667 -s 0 -d 1 -p tcp -e 1540 -c 0 -i 81 -a 0 -x {0.0 1.0 -1 ------- null}
r -t 0.499423466666667 -s 0 -d 1 -p tcp -e 1540 -c 0 -i 62 -a 0 -x {0.0 1.0 31 ------- null}
+ -t 0.499423466666667 -s 1 -d 0 -p ack -e 40 -c 0 -i 82 -a 0 -x {1.0 0.0 31 ------- null}
- -t 0.499423466666667 -s 1 -d 0 -p ack -e 40 -c 0 -i 82 -a 0 -x {1.0 0.0 31 ------- null}
h -t 0.499423466666667 -s 1 -d 0 -p ack -e 40 -c 0 -i 82 -a 0 -x {1.0 0.0 -1 ------- null}
r -t 0.4995056 -s 0 -d 1 -p tcp -e 1540 -c 0 -i 63 -a 0 -x {0.0 1.0 32 ------- null}
+ -t 0.4995056 -s 1 -d 0 -p ack -e 40 -c 0 -i 83 -a 0 -x {1.0 0.0 32 ------- null}
- -t 0.4995056 -s 1 -d 0 -p ack -e 40 -c 0 -i 83 -a 0 -x {1.0 0.0 32 ------- null}
h -t 0.4995056 -s 1 -d 0 -p ack -e 40 -c 0 -i 83 -a 0 -x {1.0 0.0 -1 ------- null}
r -t 0.499587733333333 -s 0 -d 1 -p tcp -e 1540 -c 0 -i 64 -a 0 -x {0.0 1.0 33 ------- null}
+ -t 0.499587733333333 -s 1 -d 0 -p ack -e 40 -c 0 -i 84 -a 0 -x {1.0 0.0 33 ------- null}
- -t 0.499587733333333 -s 1 -d 0 -p ack -e 40 -c 0 -i 84 -a 0 -x {1.0 0.0 33 ------- null}
h -t 0.499587733333333 -s 1 -d 0 -p ack -e 40 -c 0 -i 84 -a 0 -x {1.0 0.0 -1 ------- null}
r -t 0.499669866666667 -s 0 -d 1 -p tcp -e 1540 -c 0 -i 65 -a 0 -x {0.0 1.0 34 ------- null}
+ -t 0.499669866666667 -s 1 -d 0 -p ack -e 40 -c 0 -i 85 -a 0 -x {1.0 0.0 34 ------- null}
- -t 0.499669866666667 -s 1 -d 0 -p ack -e 40 -c 0 -i 85 -a 0 -x {1.0 0.0 34 ------- null}
h -t 0.499669866666667 -s 1 -d 0 -p ack -e 40 -c 0 -i 85 -a 0 -x {1.0 0.0 -1 ------- null}
r -t 0.499752 -s 0 -d 1 -p tcp -e 1540 -c 0 -i 66 -a 0 -x {0.0 1.0 35 ------- null}
+ -t 0.499752 -s 1 -d 0 -p ack -e 40 -c 0 -i 86 -a 0 -x {1.0 0.0 35 ------- null}
- -t 0.499752 -s 1 -d 0 -p ack -e 40 -c 0 -i 86 -a 0 -x {1.0 0.0 35 ------- null}
h -t 0.499752 -s 1 -d 0 -p ack -e 40 -c 0 -i 86 -a 0 -x {1.0 0.0 -1 ------- null}
r -t 0.499834133333333 -s 0 -d 1 -p tcp -e 1540 -c 0 -i 67 -a 0 -x {0.0 1.0 36 ------- null}
+ -t 0.499834133333333 -s 1 -d 0 -p ack -e 40 -c 0 -i 87 -a 0 -x {1.0 0.0 36 ------- null}
- -t 0.499834133333333 -s 1 -d 0 -p ack -e 40 -c 0 -i 87 -a 0 -x {1.0 0.0 36 ------- null}
h -t 0.499834133333333 -s 1 -d 0 -p ack -e 40 -c 0 -i 87 -a 0 -x {1.0 0.0 -1 ------- null}
r -t 0.499916266666667 -s 0 -d 1 -p tcp -e 1540 -c 0 -i 68 -a 0 -x {0.0 1.0 37 ------- null}